
    -----------------------------------------------------------------------
          Psi4: An Open-Source Ab Initio Electronic Structure Package
                               Psi4 1.1 release

                         Git: Rev {} zzzzzzz 


    R. M. Parrish, L. A. Burns, D. G. A. Smith, A. C. Simmonett,
    A. E. DePrince III, E. G. Hohenstein, U. Bozkaya, A. Yu. Sokolov,
    R. Di Remigio, R. M. Richard, J. F. Gonthier, A. M. James,
    H. R. McAlexander, A. Kumar, M. Saitow, X. Wang, B. P. Pritchard,
    P. Verma, H. F. Schaefer III, K. Patkowski, R. A. King, E. F. Valeev,
    F. A. Evangelista, J. M. Turney, T. D. Crawford, and C. D. Sherrill,
    J. Chem. Theory Comput. in press (2017).
    (doi: 10.1021/acs.jctc.7b00174)

    -----------------------------------------------------------------------


    Psi4 started on: Monday, 22 June 2020 10:33AM

    Process ID:   5477
    PSIDATADIR: /usr/share/psi4
    Memory:     500.0 MiB
    Threads:    1
    
  ==> Input File <==

--------------------------------------------------------------------------
molecule {
0 1
O 0.0 0.0 -0.06617626194871772
H 0.0 -0.89161914868059 0.5648094956415423
H 0.0 0.89661914868059 0.5648094956415423

}

set e_convergence 11
set basis         cc-pVDZ
energy('scf')

--------------------------------------------------------------------------

*** tstart() called on sgoodlett
*** at Mon Jun 22 10:33:32 2020

   => Loading Basis Set <=

    Name: CC-PVDZ
    Role: ORBITAL
    Keyword: BASIS
    atoms 1   entry O          line   190 file /usr/share/psi4/basis/cc-pvdz.gbs 
    atoms 2-3 entry H          line    20 file /usr/share/psi4/basis/cc-pvdz.gbs 


         ---------------------------------------------------------
                                   SCF
            by Justin Turney, Rob Parrish, and Andy Simmonett
                              RHF Reference
                        1 Threads,    500 MiB Core
         ---------------------------------------------------------

  ==> Geometry <==

    Molecular point group: cs
    Full point group: Cs

    Geometry (in Angstrom), charge = 0, multiplicity = 1:

       Center              X                  Y                   Z               Mass       
    ------------   -----------------  -----------------  -----------------  -----------------
           O          0.000279787183     0.070616691097     0.000000000000    15.994914619560
           H          0.891898935864    -0.560369066493     0.000000000000     1.007825032070
           H         -0.896339361497    -0.560369066493     0.000000000000     1.007825032070

  Running in cs symmetry.

  Rotational constants: A =     23.65337  B =     10.46129  C =      7.25333 [cm^-1]
  Rotational constants: A = 709110.23820  B = 313621.52411  C = 217449.22947 [MHz]
  Nuclear repulsion =    8.032835381244327

  Charge       = 0
  Multiplicity = 1
  Electrons    = 10
  Nalpha       = 5
  Nbeta        = 5

  ==> Algorithm <==

  SCF Algorithm Type is DF.
  DIIS enabled.
  MOM disabled.
  Fractional occupation disabled.
  Guess Type is SAD.
  Energy threshold   = 1.00e-11
  Density threshold  = 1.00e-06
  Integral threshold = 0.00e+00

  ==> Primary Basis <==

  Basis Set: CC-PVDZ
    Blend: CC-PVDZ
    Number of shells: 12
    Number of basis function: 24
    Number of Cartesian functions: 25
    Spherical Harmonics?: true
    Max angular momentum: 2

   => Loading Basis Set <=

    Name: (CC-PVDZ AUX)
    Role: JKFIT
    Keyword: DF_BASIS_SCF
    atoms 1   entry O          line   220 file /usr/share/psi4/basis/cc-pvdz-jkfit.gbs 
    atoms 2-3 entry H          line    50 file /usr/share/psi4/basis/cc-pvdz-jkfit.gbs 

  ==> Pre-Iterations <==

   -------------------------------------------------------
    Irrep   Nso     Nmo     Nalpha   Nbeta   Ndocc  Nsocc
   -------------------------------------------------------
     A'        18      18       0       0       0       0
     A"         6       6       0       0       0       0
   -------------------------------------------------------
    Total      24      24       5       5       5       0
   -------------------------------------------------------

  ==> Integral Setup <==

  ==> DFJK: Density-Fitted J/K Matrices <==

    J tasked:                  Yes
    K tasked:                  Yes
    wK tasked:                  No
    OpenMP threads:              1
    Integrals threads:           1
    Memory (MB):               375
    Algorithm:                Core
    Integral Cache:           NONE
    Schwarz Cutoff:          1E-12
    Fitting Condition:       1E-12

   => Auxiliary Basis Set <=

  Basis Set: (CC-PVDZ AUX)
    Blend: CC-PVDZ-JKFIT
    Number of shells: 42
    Number of basis function: 116
    Number of Cartesian functions: 131
    Spherical Harmonics?: true
    Max angular momentum: 3

  Minimum eigenvalue in the overlap matrix is 4.7233877576E-02.
  Using Symmetric Orthogonalization.

  SCF Guess: Superposition of Atomic Densities via on-the-fly atomic UHF.

  ==> Iterations <==

                           Total Energy        Delta E     RMS |[F,P]|

   @DF-RHF iter   0:   -75.75293285041391   -7.57529e+01   6.66488e-02 
   @DF-RHF iter   1:   -75.94667894180793   -1.93746e-01   1.51062e-02 
   @DF-RHF iter   2:   -75.97825725101949   -3.15783e-02   9.00672e-03 DIIS
   @DF-RHF iter   3:   -75.98900450870924   -1.07473e-02   1.50948e-03 DIIS
   @DF-RHF iter   4:   -75.99006863504918   -1.06413e-03   5.44627e-04 DIIS
   @DF-RHF iter   5:   -75.99022371973030   -1.55085e-04   1.16339e-04 DIIS
   @DF-RHF iter   6:   -75.99023268957997   -8.96985e-06   2.26665e-05 DIIS
   @DF-RHF iter   7:   -75.99023300821750   -3.18638e-07   3.59249e-06 DIIS
   @DF-RHF iter   8:   -75.99023301370293   -5.48543e-09   4.75561e-07 DIIS
   @DF-RHF iter   9:   -75.99023301376802   -6.50857e-11   3.49440e-08 DIIS
   @DF-RHF iter  10:   -75.99023301376855   -5.25802e-13   5.48160e-09 DIIS

  ==> Post-Iterations <==

    Orbital Energies (a.u.)
    -----------------------

    Doubly Occupied:                                                      

       1Ap   -20.569879     2Ap    -1.275694     3Ap    -0.639766  
       4Ap    -0.532194     1App   -0.484003  

    Virtual:                                                              

       5Ap     0.158184     6Ap     0.231821     7Ap     0.723057  
       8Ap     0.728336     9Ap     1.169044     2App    1.189922  
      10Ap     1.259914     3App    1.439335    11Ap     1.514480  
       4App    1.679543    12Ap     1.788875    13Ap     1.897388  
      14Ap     2.171275    15Ap     2.208995     5App    3.158274  
       6App    3.231126    16Ap     3.306688    17Ap     3.763489  
      18Ap     3.968695  

    Final Occupation by Irrep:
             Ap   App 
    DOCC [     4,    1 ]

  Energy converged.

  @DF-RHF Final Energy:   -75.99023301376855

   => Energetics <=

    Nuclear Repulsion Energy =              8.0328353812443272
    One-Electron Energy =                -121.0430633170686718
    Two-Electron Energy =                  37.0199949220558011
    DFT Exchange-Correlation Energy =       0.0000000000000000
    Empirical Dispersion Energy =           0.0000000000000000
    PCM Polarization Energy =               0.0000000000000000
    EFP Energy =                            0.0000000000000000
    Total Energy =                        -75.9902330137685453



Properties will be evaluated at   0.000000,   0.000000,   0.000000 Bohr

Properties computed using the SCF density matrix

  Nuclear Dipole Moment: (a.u.)
     X:    -0.0042      Y:    -1.0503      Z:     0.0000

  Electronic Dipole Moment: (a.u.)
     X:     0.0021      Y:     0.2325      Z:     0.0000

  Dipole Moment: (a.u.)
     X:    -0.0020      Y:    -0.8178      Z:     0.0000     Total:     0.8178

  Dipole Moment: (Debye)
     X:    -0.0052      Y:    -2.0786      Z:     0.0000     Total:     2.0786


*** tstop() called on sgoodlett at Mon Jun 22 10:33:33 2020
Module time:
	user time   =       0.20 seconds =       0.00 minutes
	system time =       0.00 seconds =       0.00 minutes
	total time  =          1 seconds =       0.02 minutes
Total time:
	user time   =       0.20 seconds =       0.00 minutes
	system time =       0.00 seconds =       0.00 minutes
	total time  =          1 seconds =       0.02 minutes

*** Psi4 exiting successfully. Buy a developer a beer!
