
    -----------------------------------------------------------------------
          Psi4: An Open-Source Ab Initio Electronic Structure Package
                               Psi4 1.1 release

                         Git: Rev {} zzzzzzz 


    R. M. Parrish, L. A. Burns, D. G. A. Smith, A. C. Simmonett,
    A. E. DePrince III, E. G. Hohenstein, U. Bozkaya, A. Yu. Sokolov,
    R. Di Remigio, R. M. Richard, J. F. Gonthier, A. M. James,
    H. R. McAlexander, A. Kumar, M. Saitow, X. Wang, B. P. Pritchard,
    P. Verma, H. F. Schaefer III, K. Patkowski, R. A. King, E. F. Valeev,
    F. A. Evangelista, J. M. Turney, T. D. Crawford, and C. D. Sherrill,
    J. Chem. Theory Comput. in press (2017).
    (doi: 10.1021/acs.jctc.7b00174)

    -----------------------------------------------------------------------


    Psi4 started on: Monday, 22 June 2020 10:34AM

    Process ID:   6454
    PSIDATADIR: /usr/share/psi4
    Memory:     500.0 MiB
    Threads:    1
    
  ==> Input File <==

--------------------------------------------------------------------------
molecule {
0 1
O 0.0 0.0 -0.07117626194871772
H 0.0 -0.89161914868059 0.5648094956415423
H 0.005 0.89161914868059 0.5648094956415423

}

set e_convergence 11
set basis         cc-pVDZ
energy('scf')

--------------------------------------------------------------------------

*** tstart() called on sgoodlett
*** at Mon Jun 22 10:34:22 2020

   => Loading Basis Set <=

    Name: CC-PVDZ
    Role: ORBITAL
    Keyword: BASIS
    atoms 1   entry O          line   190 file /usr/share/psi4/basis/cc-pvdz.gbs 
    atoms 2-3 entry H          line    20 file /usr/share/psi4/basis/cc-pvdz.gbs 


         ---------------------------------------------------------
                                   SCF
            by Justin Turney, Rob Parrish, and Andy Simmonett
                              RHF Reference
                        1 Threads,    500 MiB Core
         ---------------------------------------------------------

  ==> Geometry <==

    Molecular point group: cs
    Full point group: Cs

    Geometry (in Angstrom), charge = 0, multiplicity = 1:

       Center              X                  Y                   Z               Mass       
    ------------   -----------------  -----------------  -----------------  -----------------
           O          0.071176815370     0.000000000000     0.000000000000    15.994914619560
           H         -0.564804028645    -0.891622653479     0.000000000000     1.007825032070
           H         -0.564823683021     0.891622653479     0.000000000000     1.007825032070

  Running in cs symmetry.

  Rotational constants: A =     23.28227  B =     10.52008  C =      7.24599 [cm^-1]
  Rotational constants: A = 697984.81087  B = 315384.15545  C = 217229.21997 [MHz]
  Nuclear repulsion =    8.027568384184377

  Charge       = 0
  Multiplicity = 1
  Electrons    = 10
  Nalpha       = 5
  Nbeta        = 5

  ==> Algorithm <==

  SCF Algorithm Type is DF.
  DIIS enabled.
  MOM disabled.
  Fractional occupation disabled.
  Guess Type is SAD.
  Energy threshold   = 1.00e-11
  Density threshold  = 1.00e-06
  Integral threshold = 0.00e+00

  ==> Primary Basis <==

  Basis Set: CC-PVDZ
    Blend: CC-PVDZ
    Number of shells: 12
    Number of basis function: 24
    Number of Cartesian functions: 25
    Spherical Harmonics?: true
    Max angular momentum: 2

   => Loading Basis Set <=

    Name: (CC-PVDZ AUX)
    Role: JKFIT
    Keyword: DF_BASIS_SCF
    atoms 1   entry O          line   220 file /usr/share/psi4/basis/cc-pvdz-jkfit.gbs 
    atoms 2-3 entry H          line    50 file /usr/share/psi4/basis/cc-pvdz-jkfit.gbs 

  ==> Pre-Iterations <==

   -------------------------------------------------------
    Irrep   Nso     Nmo     Nalpha   Nbeta   Ndocc  Nsocc
   -------------------------------------------------------
     A'        18      18       0       0       0       0
     A"         6       6       0       0       0       0
   -------------------------------------------------------
    Total      24      24       5       5       5       0
   -------------------------------------------------------

  ==> Integral Setup <==

  ==> DFJK: Density-Fitted J/K Matrices <==

    J tasked:                  Yes
    K tasked:                  Yes
    wK tasked:                  No
    OpenMP threads:              1
    Integrals threads:           1
    Memory (MB):               375
    Algorithm:                Core
    Integral Cache:           NONE
    Schwarz Cutoff:          1E-12
    Fitting Condition:       1E-12

   => Auxiliary Basis Set <=

  Basis Set: (CC-PVDZ AUX)
    Blend: CC-PVDZ-JKFIT
    Number of shells: 42
    Number of basis function: 116
    Number of Cartesian functions: 131
    Spherical Harmonics?: true
    Max angular momentum: 3

  Minimum eigenvalue in the overlap matrix is 4.7137495559E-02.
  Using Symmetric Orthogonalization.

  SCF Guess: Superposition of Atomic Densities via on-the-fly atomic UHF.

  ==> Iterations <==

                           Total Energy        Delta E     RMS |[F,P]|

   @DF-RHF iter   0:   -75.67284061309125   -7.56728e+01   6.57341e-02 
   @DF-RHF iter   1:   -75.97150795412816   -2.98667e-01   1.12726e-02 
   @DF-RHF iter   2:   -75.98530371020898   -1.37958e-02   5.89828e-03 DIIS
   @DF-RHF iter   3:   -75.98994000630276   -4.63630e-03   9.52631e-04 DIIS
   @DF-RHF iter   4:   -75.99011912941188   -1.79123e-04   2.08427e-04 DIIS
   @DF-RHF iter   5:   -75.99014082832198   -2.16989e-05   6.22696e-05 DIIS
   @DF-RHF iter   6:   -75.99014336393402   -2.53561e-06   1.14378e-05 DIIS
   @DF-RHF iter   7:   -75.99014344661646   -8.26824e-08   1.37713e-06 DIIS
   @DF-RHF iter   8:   -75.99014344752072   -9.04265e-10   2.33408e-07 DIIS
   @DF-RHF iter   9:   -75.99014344754252   -2.17995e-11   3.09682e-08 DIIS
   @DF-RHF iter  10:   -75.99014344754279   -2.70006e-13   2.98111e-09 DIIS

  ==> Post-Iterations <==

    Orbital Energies (a.u.)
    -----------------------

    Doubly Occupied:                                                      

       1Ap   -20.570448     2Ap    -1.275800     3Ap    -0.638649  
       4Ap    -0.533135     1App   -0.484267  

    Virtual:                                                              

       5Ap     0.158090     6Ap     0.231532     7Ap     0.721181  
       8Ap     0.729649     9Ap     1.169150     2App    1.189530  
      10Ap     1.260776     3App    1.440468    11Ap     1.510776  
       4App    1.677493    12Ap     1.790217    13Ap     1.896862  
      14Ap     2.168350    15Ap     2.207524     5App    3.159736  
       6App    3.228674    16Ap     3.309550    17Ap     3.758007  
      18Ap     3.970506  

    Final Occupation by Irrep:
             Ap   App 
    DOCC [     4,    1 ]

  Energy converged.

  @DF-RHF Final Energy:   -75.99014344754279

   => Energetics <=

    Nuclear Repulsion Energy =              8.0275683841843772
    One-Electron Energy =                -121.0308263746243540
    Two-Electron Energy =                  37.0131145428971848
    DFT Exchange-Correlation Energy =       0.0000000000000000
    Empirical Dispersion Energy =           0.0000000000000000
    PCM Polarization Energy =               0.0000000000000000
    EFP Energy =                            0.0000000000000000
    Total Energy =                        -75.9901434475427919



Properties will be evaluated at   0.000000,   0.000000,   0.000000 Bohr

Properties computed using the SCF density matrix

  Nuclear Dipole Moment: (a.u.)
     X:    -1.0586      Y:    -0.0000      Z:     0.0000

  Electronic Dipole Moment: (a.u.)
     X:     0.2367      Y:    -0.0000      Z:     0.0000

  Dipole Moment: (a.u.)
     X:    -0.8220      Y:    -0.0000      Z:     0.0000     Total:     0.8220

  Dipole Moment: (Debye)
     X:    -2.0893      Y:    -0.0000      Z:     0.0000     Total:     2.0893


*** tstop() called on sgoodlett at Mon Jun 22 10:34:22 2020
Module time:
	user time   =       0.18 seconds =       0.00 minutes
	system time =       0.00 seconds =       0.00 minutes
	total time  =          0 seconds =       0.00 minutes
Total time:
	user time   =       0.18 seconds =       0.00 minutes
	system time =       0.00 seconds =       0.00 minutes
	total time  =          0 seconds =       0.00 minutes

*** Psi4 exiting successfully. Buy a developer a beer!
