
    -----------------------------------------------------------------------
          Psi4: An Open-Source Ab Initio Electronic Structure Package
                               Psi4 1.1 release

                         Git: Rev {} zzzzzzz 


    R. M. Parrish, L. A. Burns, D. G. A. Smith, A. C. Simmonett,
    A. E. DePrince III, E. G. Hohenstein, U. Bozkaya, A. Yu. Sokolov,
    R. Di Remigio, R. M. Richard, J. F. Gonthier, A. M. James,
    H. R. McAlexander, A. Kumar, M. Saitow, X. Wang, B. P. Pritchard,
    P. Verma, H. F. Schaefer III, K. Patkowski, R. A. King, E. F. Valeev,
    F. A. Evangelista, J. M. Turney, T. D. Crawford, and C. D. Sherrill,
    J. Chem. Theory Comput. in press (2017).
    (doi: 10.1021/acs.jctc.7b00174)

    -----------------------------------------------------------------------


    Psi4 started on: Monday, 22 June 2020 10:33AM

    Process ID:   5516
    PSIDATADIR: /usr/share/psi4
    Memory:     500.0 MiB
    Threads:    1
    
  ==> Input File <==

--------------------------------------------------------------------------
molecule {
0 1
O 0.0 0.0 -0.06617626194871772
H 0.005 -0.89161914868059 0.5648094956415423
H 0.0 0.89161914868059 0.5648094956415423

}

set e_convergence 11
set basis         cc-pVDZ
energy('scf')

--------------------------------------------------------------------------

*** tstart() called on sgoodlett
*** at Mon Jun 22 10:33:34 2020

   => Loading Basis Set <=

    Name: CC-PVDZ
    Role: ORBITAL
    Keyword: BASIS
    atoms 1   entry O          line   190 file /usr/share/psi4/basis/cc-pvdz.gbs 
    atoms 2-3 entry H          line    20 file /usr/share/psi4/basis/cc-pvdz.gbs 


         ---------------------------------------------------------
                                   SCF
            by Justin Turney, Rob Parrish, and Andy Simmonett
                              RHF Reference
                        1 Threads,    500 MiB Core
         ---------------------------------------------------------

  ==> Geometry <==

    Molecular point group: cs
    Full point group: Cs

    Geometry (in Angstrom), charge = 0, multiplicity = 1:

       Center              X                  Y                   Z               Mass       
    ------------   -----------------  -----------------  -----------------  -----------------
           O          0.070617245361     0.000000000000     0.000000000000    15.994914619560
           H         -0.560383369836    -0.891622653478     0.000000000000     1.007825032070
           H         -0.560363559719     0.891622653478     0.000000000000     1.007825032070

  Running in cs symmetry.

  Rotational constants: A =     23.65271  B =     10.52008  C =      7.28148 [cm^-1]
  Rotational constants: A = 709090.27967  B = 315384.15545  C = 218293.23537 [MHz]
  Nuclear repulsion =    8.048064216068555

  Charge       = 0
  Multiplicity = 1
  Electrons    = 10
  Nalpha       = 5
  Nbeta        = 5

  ==> Algorithm <==

  SCF Algorithm Type is DF.
  DIIS enabled.
  MOM disabled.
  Fractional occupation disabled.
  Guess Type is SAD.
  Energy threshold   = 1.00e-11
  Density threshold  = 1.00e-06
  Integral threshold = 0.00e+00

  ==> Primary Basis <==

  Basis Set: CC-PVDZ
    Blend: CC-PVDZ
    Number of shells: 12
    Number of basis function: 24
    Number of Cartesian functions: 25
    Spherical Harmonics?: true
    Max angular momentum: 2

   => Loading Basis Set <=

    Name: (CC-PVDZ AUX)
    Role: JKFIT
    Keyword: DF_BASIS_SCF
    atoms 1   entry O          line   220 file /usr/share/psi4/basis/cc-pvdz-jkfit.gbs 
    atoms 2-3 entry H          line    50 file /usr/share/psi4/basis/cc-pvdz-jkfit.gbs 

  ==> Pre-Iterations <==

   -------------------------------------------------------
    Irrep   Nso     Nmo     Nalpha   Nbeta   Ndocc  Nsocc
   -------------------------------------------------------
     A'        18      18       0       0       0       0
     A"         6       6       0       0       0       0
   -------------------------------------------------------
    Total      24      24       5       5       5       0
   -------------------------------------------------------

  ==> Integral Setup <==

  ==> DFJK: Density-Fitted J/K Matrices <==

    J tasked:                  Yes
    K tasked:                  Yes
    wK tasked:                  No
    OpenMP threads:              1
    Integrals threads:           1
    Memory (MB):               375
    Algorithm:                Core
    Integral Cache:           NONE
    Schwarz Cutoff:          1E-12
    Fitting Condition:       1E-12

   => Auxiliary Basis Set <=

  Basis Set: (CC-PVDZ AUX)
    Blend: CC-PVDZ-JKFIT
    Number of shells: 42
    Number of basis function: 116
    Number of Cartesian functions: 131
    Spherical Harmonics?: true
    Max angular momentum: 3

  Minimum eigenvalue in the overlap matrix is 4.6979346080E-02.
  Using Symmetric Orthogonalization.

  SCF Guess: Superposition of Atomic Densities via on-the-fly atomic UHF.

  ==> Iterations <==

                           Total Energy        Delta E     RMS |[F,P]|

   @DF-RHF iter   0:   -75.83665757713950   -7.58367e+01   6.73813e-02 
   @DF-RHF iter   1:   -75.92711526677935   -9.04577e-02   1.79499e-02 
   @DF-RHF iter   2:   -75.97399356779609   -4.68783e-02   1.08236e-02 DIIS
   @DF-RHF iter   3:   -75.98947299482322   -1.54794e-02   1.96789e-03 DIIS
   @DF-RHF iter   4:   -75.99095612697816   -1.48313e-03   5.96199e-04 DIIS
   @DF-RHF iter   5:   -75.99112132036879   -1.65193e-04   1.17298e-04 DIIS
   @DF-RHF iter   6:   -75.99112981253799   -8.49217e-06   3.25663e-05 DIIS
   @DF-RHF iter   7:   -75.99113047846608   -6.65928e-07   5.53074e-06 DIIS
   @DF-RHF iter   8:   -75.99113049415035   -1.56843e-08   4.66597e-07 DIIS
   @DF-RHF iter   9:   -75.99113049422381   -7.34559e-11   4.38126e-08 DIIS
   @DF-RHF iter  10:   -75.99113049422431   -4.97380e-13   5.18765e-09 DIIS

  ==> Post-Iterations <==

    Orbital Energies (a.u.)
    -----------------------

    Doubly Occupied:                                                      

       1Ap   -20.569670     2Ap    -1.276479     3Ap    -0.640490  
       4Ap    -0.532825     1App   -0.484140  

    Virtual:                                                              

       5Ap     0.158687     6Ap     0.232221     7Ap     0.723889  
       8Ap     0.729820     9Ap     1.168990     2App    1.190148  
      10Ap     1.259866     3App    1.439828    11Ap     1.513043  
       4App    1.679260    12Ap     1.790782    13Ap     1.897511  
      14Ap     2.175072    15Ap     2.211628     5App    3.160153  
       6App    3.232357    16Ap     3.310073    17Ap     3.764491  
      18Ap     3.971670  

    Final Occupation by Irrep:
             Ap   App 
    DOCC [     4,    1 ]

  Energy converged.

  @DF-RHF Final Energy:   -75.99113049422431

   => Energetics <=

    Nuclear Repulsion Energy =              8.0480642160685552
    One-Electron Energy =                -121.0711807100355202
    Two-Electron Energy =                  37.0319859997426519
    DFT Exchange-Correlation Energy =       0.0000000000000000
    Empirical Dispersion Energy =           0.0000000000000000
    PCM Polarization Energy =               0.0000000000000000
    EFP Energy =                            0.0000000000000000
    Total Energy =                        -75.9911304942243078

    Alert: EFP and PCM quantities not currently incorporated into SCF psivars.

Properties will be evaluated at   0.000000,   0.000000,   0.000000 Bohr

Properties computed using the SCF density matrix

  Nuclear Dipole Moment: (a.u.)
     X:    -1.0503      Y:     0.0000      Z:     0.0000

  Electronic Dipole Moment: (a.u.)
     X:     0.2319      Y:     0.0000      Z:     0.0000

  Dipole Moment: (a.u.)
     X:    -0.8184      Y:     0.0000      Z:     0.0000     Total:     0.8184

  Dipole Moment: (Debye)
     X:    -2.0801      Y:     0.0000      Z:     0.0000     Total:     2.0801


*** tstop() called on sgoodlett at Mon Jun 22 10:33:35 2020
Module time:
	user time   =       0.19 seconds =       0.00 minutes
	system time =       0.01 seconds =       0.00 minutes
	total time  =          1 seconds =       0.02 minutes
Total time:
	user time   =       0.19 seconds =       0.00 minutes
	system time =       0.01 seconds =       0.00 minutes
	total time  =          1 seconds =       0.02 minutes

*** Psi4 exiting successfully. Buy a developer a beer!
