
    -----------------------------------------------------------------------
          Psi4: An Open-Source Ab Initio Electronic Structure Package
                               Psi4 1.1 release

                         Git: Rev {} zzzzzzz 


    R. M. Parrish, L. A. Burns, D. G. A. Smith, A. C. Simmonett,
    A. E. DePrince III, E. G. Hohenstein, U. Bozkaya, A. Yu. Sokolov,
    R. Di Remigio, R. M. Richard, J. F. Gonthier, A. M. James,
    H. R. McAlexander, A. Kumar, M. Saitow, X. Wang, B. P. Pritchard,
    P. Verma, H. F. Schaefer III, K. Patkowski, R. A. King, E. F. Valeev,
    F. A. Evangelista, J. M. Turney, T. D. Crawford, and C. D. Sherrill,
    J. Chem. Theory Comput. in press (2017).
    (doi: 10.1021/acs.jctc.7b00174)

    -----------------------------------------------------------------------


    Psi4 started on: Monday, 22 June 2020 10:34AM

    Process ID:   6481
    PSIDATADIR: /usr/share/psi4
    Memory:     500.0 MiB
    Threads:    1
    
  ==> Input File <==

--------------------------------------------------------------------------
molecule {
0 1
O 0.0 0.0 -0.07117626194871772
H 0.0 -0.89161914868059 0.5648094956415423
H 0.005 0.89161914868059 0.5698094956415423

}

set e_convergence 11
set basis         cc-pVDZ
energy('scf')

--------------------------------------------------------------------------

*** tstart() called on sgoodlett
*** at Mon Jun 22 10:34:23 2020

   => Loading Basis Set <=

    Name: CC-PVDZ
    Role: ORBITAL
    Keyword: BASIS
    atoms 1   entry O          line   190 file /usr/share/psi4/basis/cc-pvdz.gbs 
    atoms 2-3 entry H          line    20 file /usr/share/psi4/basis/cc-pvdz.gbs 


         ---------------------------------------------------------
                                   SCF
            by Justin Turney, Rob Parrish, and Andy Simmonett
                              RHF Reference
                        1 Threads,    500 MiB Core
         ---------------------------------------------------------

  ==> Geometry <==

    Molecular point group: cs
    Full point group: Cs

    Geometry (in Angstrom), charge = 0, multiplicity = 1:

       Center              X                  Y                   Z               Mass       
    ------------   -----------------  -----------------  -----------------  -----------------
           O          0.071456600400    -0.000000000000     0.000000000000    15.994914619560
           H         -0.564524282018    -0.891622626087     0.000000000000     1.007825032070
           H         -0.569543821110     0.891622626087     0.000000000000     1.007825032070

  Running in cs symmetry.

  Rotational constants: A =     23.10064  B =     10.51993  C =      7.22823 [cm^-1]
  Rotational constants: A = 692539.73210  B = 315379.58648  C = 216696.80331 [MHz]
  Nuclear repulsion =    8.017320397754295

  Charge       = 0
  Multiplicity = 1
  Electrons    = 10
  Nalpha       = 5
  Nbeta        = 5

  ==> Algorithm <==

  SCF Algorithm Type is DF.
  DIIS enabled.
  MOM disabled.
  Fractional occupation disabled.
  Guess Type is SAD.
  Energy threshold   = 1.00e-11
  Density threshold  = 1.00e-06
  Integral threshold = 0.00e+00

  ==> Primary Basis <==

  Basis Set: CC-PVDZ
    Blend: CC-PVDZ
    Number of shells: 12
    Number of basis function: 24
    Number of Cartesian functions: 25
    Spherical Harmonics?: true
    Max angular momentum: 2

   => Loading Basis Set <=

    Name: (CC-PVDZ AUX)
    Role: JKFIT
    Keyword: DF_BASIS_SCF
    atoms 1   entry O          line   220 file /usr/share/psi4/basis/cc-pvdz-jkfit.gbs 
    atoms 2-3 entry H          line    50 file /usr/share/psi4/basis/cc-pvdz-jkfit.gbs 

  ==> Pre-Iterations <==

   -------------------------------------------------------
    Irrep   Nso     Nmo     Nalpha   Nbeta   Ndocc  Nsocc
   -------------------------------------------------------
     A'        18      18       0       0       0       0
     A"         6       6       0       0       0       0
   -------------------------------------------------------
    Total      24      24       5       5       5       0
   -------------------------------------------------------

  ==> Integral Setup <==

  ==> DFJK: Density-Fitted J/K Matrices <==

    J tasked:                  Yes
    K tasked:                  Yes
    wK tasked:                  No
    OpenMP threads:              1
    Integrals threads:           1
    Memory (MB):               375
    Algorithm:                Core
    Integral Cache:           NONE
    Schwarz Cutoff:          1E-12
    Fitting Condition:       1E-12

   => Auxiliary Basis Set <=

  Basis Set: (CC-PVDZ AUX)
    Blend: CC-PVDZ-JKFIT
    Number of shells: 42
    Number of basis function: 116
    Number of Cartesian functions: 131
    Spherical Harmonics?: true
    Max angular momentum: 3

  Minimum eigenvalue in the overlap matrix is 4.7217403605E-02.
  Using Symmetric Orthogonalization.

  SCF Guess: Superposition of Atomic Densities via on-the-fly atomic UHF.

  ==> Iterations <==

                           Total Energy        Delta E     RMS |[F,P]|

   @DF-RHF iter   0:   -75.67080462011350   -7.56708e+01   6.55584e-02 
   @DF-RHF iter   1:   -75.97103167785156   -3.00227e-01   1.12590e-02 
   @DF-RHF iter   2:   -75.98479328713992   -1.37616e-02   5.89980e-03 DIIS
   @DF-RHF iter   3:   -75.98943392533764   -4.64064e-03   9.53329e-04 DIIS
   @DF-RHF iter   4:   -75.98961343912629   -1.79514e-04   2.08974e-04 DIIS
   @DF-RHF iter   5:   -75.98963532584862   -2.18867e-05   6.26255e-05 DIIS
   @DF-RHF iter   6:   -75.98963789756570   -2.57172e-06   1.14526e-05 DIIS
   @DF-RHF iter   7:   -75.98963798060646   -8.30408e-08   1.38120e-06 DIIS
   @DF-RHF iter   8:   -75.98963798151455   -9.08088e-10   2.34668e-07 DIIS
   @DF-RHF iter   9:   -75.98963798153622   -2.16716e-11   3.10841e-08 DIIS
   @DF-RHF iter  10:   -75.98963798153650   -2.84217e-13   3.05063e-09 DIIS

  ==> Post-Iterations <==

    Orbital Energies (a.u.)
    -----------------------

    Doubly Occupied:                                                      

       1Ap   -20.570837     2Ap    -1.275462     3Ap    -0.637731  
       4Ap    -0.533284     1App   -0.484331  

    Virtual:                                                              

       5Ap     0.157788     6Ap     0.231183     7Ap     0.719768  
       8Ap     0.729630     9Ap     1.169233     2App    1.189217  
      10Ap     1.261238     3App    1.440790    11Ap     1.509643  
       4App    1.676617    12Ap     1.789926    13Ap     1.896518  
      14Ap     2.164882    15Ap     2.205626     5App    3.159490  
       6App    3.226862    16Ap     3.309231    17Ap     3.754805  
      18Ap     3.969893  

    Final Occupation by Irrep:
             Ap   App 
    DOCC [     4,    1 ]

  Energy converged.

  @DF-RHF Final Energy:   -75.98963798153650

   => Energetics <=

    Nuclear Repulsion Energy =              8.0173203977542951
    One-Electron Energy =                -121.0106274988931290
    Two-Electron Energy =                  37.0036691196023355
    DFT Exchange-Correlation Energy =       0.0000000000000000
    Empirical Dispersion Energy =           0.0000000000000000
    PCM Polarization Energy =               0.0000000000000000
    EFP Energy =                            0.0000000000000000
    Total Energy =                        -75.9896379815365037

    Alert: EFP and PCM quantities not currently incorporated into SCF psivars.

Properties will be evaluated at   0.000000,   0.000000,   0.000000 Bohr

Properties computed using the SCF density matrix

  Nuclear Dipole Moment: (a.u.)
     X:    -1.0628      Y:     0.0000      Z:     0.0000

  Electronic Dipole Moment: (a.u.)
     X:     0.2390      Y:    -0.0009      Z:     0.0000

  Dipole Moment: (a.u.)
     X:    -0.8238      Y:    -0.0009      Z:     0.0000     Total:     0.8238

  Dipole Moment: (Debye)
     X:    -2.0938      Y:    -0.0023      Z:     0.0000     Total:     2.0938


*** tstop() called on sgoodlett at Mon Jun 22 10:34:23 2020
Module time:
	user time   =       0.19 seconds =       0.00 minutes
	system time =       0.00 seconds =       0.00 minutes
	total time  =          0 seconds =       0.00 minutes
Total time:
	user time   =       0.19 seconds =       0.00 minutes
	system time =       0.00 seconds =       0.00 minutes
	total time  =          0 seconds =       0.00 minutes

*** Psi4 exiting successfully. Buy a developer a beer!
