
    -----------------------------------------------------------------------
          Psi4: An Open-Source Ab Initio Electronic Structure Package
                               Psi4 1.1 release

                         Git: Rev {} zzzzzzz 


    R. M. Parrish, L. A. Burns, D. G. A. Smith, A. C. Simmonett,
    A. E. DePrince III, E. G. Hohenstein, U. Bozkaya, A. Yu. Sokolov,
    R. Di Remigio, R. M. Richard, J. F. Gonthier, A. M. James,
    H. R. McAlexander, A. Kumar, M. Saitow, X. Wang, B. P. Pritchard,
    P. Verma, H. F. Schaefer III, K. Patkowski, R. A. King, E. F. Valeev,
    F. A. Evangelista, J. M. Turney, T. D. Crawford, and C. D. Sherrill,
    J. Chem. Theory Comput. in press (2017).
    (doi: 10.1021/acs.jctc.7b00174)

    -----------------------------------------------------------------------


    Psi4 started on: Monday, 22 June 2020 10:33AM

    Process ID:   5984
    PSIDATADIR: /usr/share/psi4
    Memory:     500.0 MiB
    Threads:    1
    
  ==> Input File <==

--------------------------------------------------------------------------
molecule {
0 1
O -0.005 0.0 -0.07117626194871772
H 0.0 -0.89161914868059 0.5598094956415423
H 0.0 0.89161914868059 0.5648094956415423

}

set e_convergence 11
set basis         cc-pVDZ
energy('scf')

--------------------------------------------------------------------------

*** tstart() called on sgoodlett
*** at Mon Jun 22 10:33:58 2020

   => Loading Basis Set <=

    Name: CC-PVDZ
    Role: ORBITAL
    Keyword: BASIS
    atoms 1   entry O          line   190 file /usr/share/psi4/basis/cc-pvdz.gbs 
    atoms 2-3 entry H          line    20 file /usr/share/psi4/basis/cc-pvdz.gbs 


         ---------------------------------------------------------
                                   SCF
            by Justin Turney, Rob Parrish, and Andy Simmonett
                              RHF Reference
                        1 Threads,    500 MiB Core
         ---------------------------------------------------------

  ==> Geometry <==

    Molecular point group: cs
    Full point group: Cs

    Geometry (in Angstrom), charge = 0, multiplicity = 1:

       Center              X                  Y                   Z               Mass       
    ------------   -----------------  -----------------  -----------------  -----------------
           O          0.070898686561    -0.000000000000     0.000000000000    15.994914619560
           H         -0.560106880683    -0.891619148899     0.000000000000     1.007825032070
           H         -0.565106724948     0.891619148899     0.000000000000     1.007825032070

  Running in cs symmetry.

  Rotational constants: A =     23.46563  B =     10.52002  C =      7.26362 [cm^-1]
  Rotational constants: A = 703481.83262  B = 315382.14068  C = 217757.82844 [MHz]
  Nuclear repulsion =    8.037775857205620

  Charge       = 0
  Multiplicity = 1
  Electrons    = 10
  Nalpha       = 5
  Nbeta        = 5

  ==> Algorithm <==

  SCF Algorithm Type is DF.
  DIIS enabled.
  MOM disabled.
  Fractional occupation disabled.
  Guess Type is SAD.
  Energy threshold   = 1.00e-11
  Density threshold  = 1.00e-06
  Integral threshold = 0.00e+00

  ==> Primary Basis <==

  Basis Set: CC-PVDZ
    Blend: CC-PVDZ
    Number of shells: 12
    Number of basis function: 24
    Number of Cartesian functions: 25
    Spherical Harmonics?: true
    Max angular momentum: 2

   => Loading Basis Set <=

    Name: (CC-PVDZ AUX)
    Role: JKFIT
    Keyword: DF_BASIS_SCF
    atoms 1   entry O          line   220 file /usr/share/psi4/basis/cc-pvdz-jkfit.gbs 
    atoms 2-3 entry H          line    50 file /usr/share/psi4/basis/cc-pvdz-jkfit.gbs 

  ==> Pre-Iterations <==

   -------------------------------------------------------
    Irrep   Nso     Nmo     Nalpha   Nbeta   Ndocc  Nsocc
   -------------------------------------------------------
     A'        18      18       0       0       0       0
     A"         6       6       0       0       0       0
   -------------------------------------------------------
    Total      24      24       5       5       5       0
   -------------------------------------------------------

  ==> Integral Setup <==

  ==> DFJK: Density-Fitted J/K Matrices <==

    J tasked:                  Yes
    K tasked:                  Yes
    wK tasked:                  No
    OpenMP threads:              1
    Integrals threads:           1
    Memory (MB):               375
    Algorithm:                Core
    Integral Cache:           NONE
    Schwarz Cutoff:          1E-12
    Fitting Condition:       1E-12

   => Auxiliary Basis Set <=

  Basis Set: (CC-PVDZ AUX)
    Blend: CC-PVDZ-JKFIT
    Number of shells: 42
    Number of basis function: 116
    Number of Cartesian functions: 131
    Spherical Harmonics?: true
    Max angular momentum: 3

  Minimum eigenvalue in the overlap matrix is 4.7057930549E-02.
  Using Symmetric Orthogonalization.

  SCF Guess: Superposition of Atomic Densities via on-the-fly atomic UHF.

  ==> Iterations <==

                           Total Energy        Delta E     RMS |[F,P]|

   @DF-RHF iter   0:   -75.75512164717028   -7.57551e+01   6.67733e-02 
   @DF-RHF iter   1:   -75.94700343710629   -1.91882e-01   1.51205e-02 
   @DF-RHF iter   2:   -75.97865920278264   -3.16558e-02   9.01041e-03 DIIS
   @DF-RHF iter   3:   -75.98941146570141   -1.07523e-02   1.51038e-03 DIIS
   @DF-RHF iter   4:   -75.99047234444274   -1.06088e-03   5.44106e-04 DIIS
   @DF-RHF iter   5:   -75.99062667546815   -1.54331e-04   1.16104e-04 DIIS
   @DF-RHF iter   6:   -75.99063559872484   -8.92326e-06   2.26657e-05 DIIS
   @DF-RHF iter   7:   -75.99063591698622   -3.18261e-07   3.59683e-06 DIIS
   @DF-RHF iter   8:   -75.99063592248648   -5.50025e-09   4.74379e-07 DIIS
   @DF-RHF iter   9:   -75.99063592255143   -6.49578e-11   3.47304e-08 DIIS
   @DF-RHF iter  10:   -75.99063592255203   -5.96856e-13   5.38301e-09 DIIS

  ==> Post-Iterations <==

    Orbital Energies (a.u.)
    -----------------------

    Doubly Occupied:                                                      

       1Ap   -20.570061     2Ap    -1.276139     3Ap    -0.639565  
       4Ap    -0.532981     1App   -0.484204  

    Virtual:                                                              

       5Ap     0.158386     6Ap     0.231877     7Ap     0.722423  
       8Ap     0.729841     9Ap     1.169066     2App    1.189837  
      10Ap     1.260327     3App    1.440152    11Ap     1.511904  
       4App    1.678368    12Ap     1.790498    13Ap     1.897181  
      14Ap     2.171550    15Ap     2.209714     5App    3.159932  
       6App    3.230523    16Ap     3.309832    17Ap     3.761199  
      18Ap     3.971114  

    Final Occupation by Irrep:
             Ap   App 
    DOCC [     4,    1 ]

  Energy converged.

  @DF-RHF Final Energy:   -75.99063592255203

   => Energetics <=

    Nuclear Repulsion Energy =              8.0377758572056202
    One-Electron Energy =                -121.0509227023757148
    Two-Electron Energy =                  37.0225109226180678
    DFT Exchange-Correlation Energy =       0.0000000000000000
    Empirical Dispersion Energy =           0.0000000000000000
    PCM Polarization Energy =               0.0000000000000000
    EFP Energy =                            0.0000000000000000
    Total Energy =                        -75.9906359225520305



Properties will be evaluated at   0.000000,   0.000000,   0.000000 Bohr

Properties computed using the SCF density matrix

  Nuclear Dipole Moment: (a.u.)
     X:    -1.0545      Y:     0.0000      Z:     0.0000

  Electronic Dipole Moment: (a.u.)
     X:     0.2343      Y:    -0.0009      Z:     0.0000

  Dipole Moment: (a.u.)
     X:    -0.8202      Y:    -0.0009      Z:     0.0000     Total:     0.8202

  Dipole Moment: (Debye)
     X:    -2.0847      Y:    -0.0022      Z:     0.0000     Total:     2.0847


*** tstop() called on sgoodlett at Mon Jun 22 10:33:58 2020
Module time:
	user time   =       0.20 seconds =       0.00 minutes
	system time =       0.00 seconds =       0.00 minutes
	total time  =          0 seconds =       0.00 minutes
Total time:
	user time   =       0.20 seconds =       0.00 minutes
	system time =       0.00 seconds =       0.00 minutes
	total time  =          0 seconds =       0.00 minutes

*** Psi4 exiting successfully. Buy a developer a beer!
