
    -----------------------------------------------------------------------
          Psi4: An Open-Source Ab Initio Electronic Structure Package
                               Psi4 1.1 release

                         Git: Rev {} zzzzzzz 


    R. M. Parrish, L. A. Burns, D. G. A. Smith, A. C. Simmonett,
    A. E. DePrince III, E. G. Hohenstein, U. Bozkaya, A. Yu. Sokolov,
    R. Di Remigio, R. M. Richard, J. F. Gonthier, A. M. James,
    H. R. McAlexander, A. Kumar, M. Saitow, X. Wang, B. P. Pritchard,
    P. Verma, H. F. Schaefer III, K. Patkowski, R. A. King, E. F. Valeev,
    F. A. Evangelista, J. M. Turney, T. D. Crawford, and C. D. Sherrill,
    J. Chem. Theory Comput. in press (2017).
    (doi: 10.1021/acs.jctc.7b00174)

    -----------------------------------------------------------------------


    Psi4 started on: Monday, 22 June 2020 10:33AM

    Process ID:   5724
    PSIDATADIR: /usr/share/psi4
    Memory:     500.0 MiB
    Threads:    1
    
  ==> Input File <==

--------------------------------------------------------------------------
molecule {
0 1
O 0.0 -0.005 -0.07117626194871772
H 0.0 -0.89161914868059 0.5598094956415423
H 0.0 0.89161914868059 0.5648094956415423

}

set e_convergence 11
set basis         cc-pVDZ
energy('scf')

--------------------------------------------------------------------------

*** tstart() called on sgoodlett
*** at Mon Jun 22 10:33:45 2020

   => Loading Basis Set <=

    Name: CC-PVDZ
    Role: ORBITAL
    Keyword: BASIS
    atoms 1   entry O          line   190 file /usr/share/psi4/basis/cc-pvdz.gbs 
    atoms 2-3 entry H          line    20 file /usr/share/psi4/basis/cc-pvdz.gbs 


         ---------------------------------------------------------
                                   SCF
            by Justin Turney, Rob Parrish, and Andy Simmonett
                              RHF Reference
                        1 Threads,    500 MiB Core
         ---------------------------------------------------------

  ==> Geometry <==

    Molecular point group: cs
    Full point group: Cs

    Geometry (in Angstrom), charge = 0, multiplicity = 1:

       Center              X                  Y                   Z               Mass       
    ------------   -----------------  -----------------  -----------------  -----------------
           O          0.000559574366     0.070896478281     0.000000000000    15.994914619560
           H          0.887178723047    -0.560089279310     0.000000000000     1.007825032070
           H         -0.896059574314    -0.565089279310     0.000000000000     1.007825032070

  Running in cs symmetry.

  Rotational constants: A =     23.47016  B =     10.51911  C =      7.26362 [cm^-1]
  Rotational constants: A = 703617.70706  B = 315354.83929  C = 217757.82844 [MHz]
  Nuclear repulsion =    8.038051690992194

  Charge       = 0
  Multiplicity = 1
  Electrons    = 10
  Nalpha       = 5
  Nbeta        = 5

  ==> Algorithm <==

  SCF Algorithm Type is DF.
  DIIS enabled.
  MOM disabled.
  Fractional occupation disabled.
  Guess Type is SAD.
  Energy threshold   = 1.00e-11
  Density threshold  = 1.00e-06
  Integral threshold = 0.00e+00

  ==> Primary Basis <==

  Basis Set: CC-PVDZ
    Blend: CC-PVDZ
    Number of shells: 12
    Number of basis function: 24
    Number of Cartesian functions: 25
    Spherical Harmonics?: true
    Max angular momentum: 2

   => Loading Basis Set <=

    Name: (CC-PVDZ AUX)
    Role: JKFIT
    Keyword: DF_BASIS_SCF
    atoms 1   entry O          line   220 file /usr/share/psi4/basis/cc-pvdz-jkfit.gbs 
    atoms 2-3 entry H          line    50 file /usr/share/psi4/basis/cc-pvdz-jkfit.gbs 

  ==> Pre-Iterations <==

   -------------------------------------------------------
    Irrep   Nso     Nmo     Nalpha   Nbeta   Ndocc  Nsocc
   -------------------------------------------------------
     A'        18      18       0       0       0       0
     A"         6       6       0       0       0       0
   -------------------------------------------------------
    Total      24      24       5       5       5       0
   -------------------------------------------------------

  ==> Integral Setup <==

  ==> DFJK: Density-Fitted J/K Matrices <==

    J tasked:                  Yes
    K tasked:                  Yes
    wK tasked:                  No
    OpenMP threads:              1
    Integrals threads:           1
    Memory (MB):               375
    Algorithm:                Core
    Integral Cache:           NONE
    Schwarz Cutoff:          1E-12
    Fitting Condition:       1E-12

   => Auxiliary Basis Set <=

  Basis Set: (CC-PVDZ AUX)
    Blend: CC-PVDZ-JKFIT
    Number of shells: 42
    Number of basis function: 116
    Number of Cartesian functions: 131
    Spherical Harmonics?: true
    Max angular momentum: 3

  Minimum eigenvalue in the overlap matrix is 4.7049791772E-02.
  Using Symmetric Orthogonalization.

  SCF Guess: Superposition of Atomic Densities via on-the-fly atomic UHF.

  ==> Iterations <==

                           Total Energy        Delta E     RMS |[F,P]|

   @DF-RHF iter   0:   -75.67441058280023   -7.56744e+01   6.59168e-02 
   @DF-RHF iter   1:   -75.97191781328115   -2.97507e-01   1.13002e-02 
   @DF-RHF iter   2:   -75.98576767401104   -1.38499e-02   5.91117e-03 DIIS
   @DF-RHF iter   3:   -75.99041828409128   -4.65061e-03   9.48210e-04 DIIS
   @DF-RHF iter   4:   -75.99059504547672   -1.76761e-04   2.06084e-04 DIIS
   @DF-RHF iter   5:   -75.99061606395006   -2.10185e-05   6.12670e-05 DIIS
   @DF-RHF iter   6:   -75.99061850894165   -2.44499e-06   1.14180e-05 DIIS
   @DF-RHF iter   7:   -75.99061859140105   -8.24594e-08   1.36588e-06 DIIS
   @DF-RHF iter   8:   -75.99061859229785   -8.96804e-10   2.33242e-07 DIIS
   @DF-RHF iter   9:   -75.99061859231963   -2.17852e-11   3.15880e-08 DIIS
   @DF-RHF iter  10:   -75.99061859231999   -3.55271e-13   3.93793e-09 DIIS

  ==> Post-Iterations <==

    Orbital Energies (a.u.)
    -----------------------

    Doubly Occupied:                                                      

       1Ap   -20.570056     2Ap    -1.276163     3Ap    -0.639589  
       4Ap    -0.532970     1App   -0.484207  

    Virtual:                                                              

       5Ap     0.158363     6Ap     0.231892     7Ap     0.721282  
       8Ap     0.731054     9Ap     1.169026     2App    1.189826  
      10Ap     1.260384     3App    1.440181    11Ap     1.511914  
       4App    1.678367    12Ap     1.790470    13Ap     1.897083  
      14Ap     2.169835    15Ap     2.211704     5App    3.159699  
       6App    3.230820    16Ap     3.309883    17Ap     3.761020  
      18Ap     3.971323  

    Final Occupation by Irrep:
             Ap   App 
    DOCC [     4,    1 ]

  Energy converged.

  @DF-RHF Final Energy:   -75.99061859231999

   => Energetics <=

    Nuclear Repulsion Energy =              8.0380516909921944
    One-Electron Energy =                -121.0513700969682702
    Two-Electron Energy =                  37.0226998136560752
    DFT Exchange-Correlation Energy =       0.0000000000000000
    Empirical Dispersion Energy =           0.0000000000000000
    PCM Polarization Energy =               0.0000000000000000
    EFP Energy =                            0.0000000000000000
    Total Energy =                        -75.9906185923200042



Properties will be evaluated at   0.000000,   0.000000,   0.000000 Bohr

Properties computed using the SCF density matrix

  Nuclear Dipole Moment: (a.u.)
     X:    -0.0083      Y:    -1.0545      Z:     0.0000

  Electronic Dipole Moment: (a.u.)
     X:     0.0052      Y:     0.2343      Z:     0.0000

  Dipole Moment: (a.u.)
     X:    -0.0032      Y:    -0.8202      Z:     0.0000     Total:     0.8202

  Dipole Moment: (Debye)
     X:    -0.0081      Y:    -2.0847      Z:     0.0000     Total:     2.0847


*** tstop() called on sgoodlett at Mon Jun 22 10:33:45 2020
Module time:
	user time   =       0.20 seconds =       0.00 minutes
	system time =       0.00 seconds =       0.00 minutes
	total time  =          0 seconds =       0.00 minutes
Total time:
	user time   =       0.20 seconds =       0.00 minutes
	system time =       0.00 seconds =       0.00 minutes
	total time  =          0 seconds =       0.00 minutes

*** Psi4 exiting successfully. Buy a developer a beer!
