
    -----------------------------------------------------------------------
          Psi4: An Open-Source Ab Initio Electronic Structure Package
                               Psi4 1.1 release

                         Git: Rev {} zzzzzzz 


    R. M. Parrish, L. A. Burns, D. G. A. Smith, A. C. Simmonett,
    A. E. DePrince III, E. G. Hohenstein, U. Bozkaya, A. Yu. Sokolov,
    R. Di Remigio, R. M. Richard, J. F. Gonthier, A. M. James,
    H. R. McAlexander, A. Kumar, M. Saitow, X. Wang, B. P. Pritchard,
    P. Verma, H. F. Schaefer III, K. Patkowski, R. A. King, E. F. Valeev,
    F. A. Evangelista, J. M. Turney, T. D. Crawford, and C. D. Sherrill,
    J. Chem. Theory Comput. in press (2017).
    (doi: 10.1021/acs.jctc.7b00174)

    -----------------------------------------------------------------------


    Psi4 started on: Monday, 22 June 2020 10:34AM

    Process ID:   6376
    PSIDATADIR: /usr/share/psi4
    Memory:     500.0 MiB
    Threads:    1
    
  ==> Input File <==

--------------------------------------------------------------------------
molecule {
0 1
O 0.0 0.0 -0.07117626194871772
H 0.0 -0.89661914868059 0.5648094956415423
H 0.0 0.89161914868059 0.5648094956415423

}

set e_convergence 11
set basis         cc-pVDZ
energy('scf')

--------------------------------------------------------------------------

*** tstart() called on sgoodlett
*** at Mon Jun 22 10:34:18 2020

   => Loading Basis Set <=

    Name: CC-PVDZ
    Role: ORBITAL
    Keyword: BASIS
    atoms 1   entry O          line   190 file /usr/share/psi4/basis/cc-pvdz.gbs 
    atoms 2-3 entry H          line    20 file /usr/share/psi4/basis/cc-pvdz.gbs 


         ---------------------------------------------------------
                                   SCF
            by Justin Turney, Rob Parrish, and Andy Simmonett
                              RHF Reference
                        1 Threads,    500 MiB Core
         ---------------------------------------------------------

  ==> Geometry <==

    Molecular point group: cs
    Full point group: Cs

    Geometry (in Angstrom), charge = 0, multiplicity = 1:

       Center              X                  Y                   Z               Mass       
    ------------   -----------------  -----------------  -----------------  -----------------
           O         -0.000279787183     0.071176265464     0.000000000000    15.994914619560
           H          0.896339361497    -0.564809492127     0.000000000000     1.007825032070
           H         -0.891898935864    -0.564809492127     0.000000000000     1.007825032070

  Running in cs symmetry.

  Rotational constants: A =     23.28292  B =     10.46129  C =      7.21811 [cm^-1]
  Rotational constants: A = 698004.39624  B = 313621.47422  C = 216393.40605 [MHz]
  Nuclear repulsion =    8.012453056902967

  Charge       = 0
  Multiplicity = 1
  Electrons    = 10
  Nalpha       = 5
  Nbeta        = 5

  ==> Algorithm <==

  SCF Algorithm Type is DF.
  DIIS enabled.
  MOM disabled.
  Fractional occupation disabled.
  Guess Type is SAD.
  Energy threshold   = 1.00e-11
  Density threshold  = 1.00e-06
  Integral threshold = 0.00e+00

  ==> Primary Basis <==

  Basis Set: CC-PVDZ
    Blend: CC-PVDZ
    Number of shells: 12
    Number of basis function: 24
    Number of Cartesian functions: 25
    Spherical Harmonics?: true
    Max angular momentum: 2

   => Loading Basis Set <=

    Name: (CC-PVDZ AUX)
    Role: JKFIT
    Keyword: DF_BASIS_SCF
    atoms 1   entry O          line   220 file /usr/share/psi4/basis/cc-pvdz-jkfit.gbs 
    atoms 2-3 entry H          line    50 file /usr/share/psi4/basis/cc-pvdz-jkfit.gbs 

  ==> Pre-Iterations <==

   -------------------------------------------------------
    Irrep   Nso     Nmo     Nalpha   Nbeta   Ndocc  Nsocc
   -------------------------------------------------------
     A'        18      18       0       0       0       0
     A"         6       6       0       0       0       0
   -------------------------------------------------------
    Total      24      24       5       5       5       0
   -------------------------------------------------------

  ==> Integral Setup <==

  ==> DFJK: Density-Fitted J/K Matrices <==

    J tasked:                  Yes
    K tasked:                  Yes
    wK tasked:                  No
    OpenMP threads:              1
    Integrals threads:           1
    Memory (MB):               375
    Algorithm:                Core
    Integral Cache:           NONE
    Schwarz Cutoff:          1E-12
    Fitting Condition:       1E-12

   => Auxiliary Basis Set <=

  Basis Set: (CC-PVDZ AUX)
    Blend: CC-PVDZ-JKFIT
    Number of shells: 42
    Number of basis function: 116
    Number of Cartesian functions: 131
    Spherical Harmonics?: true
    Max angular momentum: 3

  Minimum eigenvalue in the overlap matrix is 4.7392009094E-02.
  Using Symmetric Orthogonalization.

  SCF Guess: Superposition of Atomic Densities via on-the-fly atomic UHF.

  ==> Iterations <==

                           Total Energy        Delta E     RMS |[F,P]|

   @DF-RHF iter   0:   -75.82716634212625   -7.58272e+01   6.67249e-02 
   @DF-RHF iter   1:   -75.92472366776094   -9.75573e-02   1.79675e-02 
   @DF-RHF iter   2:   -75.97177859319166   -4.70549e-02   1.09212e-02 DIIS
   @DF-RHF iter   3:   -75.98754741072139   -1.57688e-02   1.97835e-03 DIIS
   @DF-RHF iter   4:   -75.98906198657012   -1.51458e-03   6.04329e-04 DIIS
   @DF-RHF iter   5:   -75.98923323797119   -1.71251e-04   1.20123e-04 DIIS
   @DF-RHF iter   6:   -75.98924221180201   -8.97383e-06   3.34928e-05 DIIS
   @DF-RHF iter   7:   -75.98924292016218   -7.08360e-07   5.65685e-06 DIIS
   @DF-RHF iter   8:   -75.98924293652225   -1.63601e-08   4.73657e-07 DIIS
   @DF-RHF iter   9:   -75.98924293659718   -7.49338e-11   4.43439e-08 DIIS
   @DF-RHF iter  10:   -75.98924293659762   -4.40536e-13   5.20167e-09 DIIS

  ==> Post-Iterations <==

    Orbital Energies (a.u.)
    -----------------------

    Doubly Occupied:                                                      

       1Ap   -20.570656     2Ap    -1.275024     3Ap    -0.637936  
       4Ap    -0.532504     1App   -0.484133  

    Virtual:                                                              

       5Ap     0.157589     6Ap     0.231130     7Ap     0.720465  
       8Ap     0.728074     9Ap     1.169199     2App    1.189301  
      10Ap     1.260824     3App    1.439973    11Ap     1.512238  
       4App    1.677791    12Ap     1.788312    13Ap     1.896712  
      14Ap     2.164599    15Ap     2.204934     5App    3.157859  
       6App    3.227461    16Ap     3.306202    17Ap     3.756987  
      18Ap     3.967537  

    Final Occupation by Irrep:
             Ap   App 
    DOCC [     4,    1 ]

  Energy converged.

  @DF-RHF Final Energy:   -75.98924293659762

   => Energetics <=

    Nuclear Repulsion Energy =              8.0124530569029666
    One-Electron Energy =                -121.0028878523491045
    Two-Electron Energy =                  37.0011918588485145
    DFT Exchange-Correlation Energy =       0.0000000000000000
    Empirical Dispersion Energy =           0.0000000000000000
    PCM Polarization Energy =               0.0000000000000000
    EFP Energy =                            0.0000000000000000
    Total Energy =                        -75.9892429365976199

    Alert: EFP and PCM quantities not currently incorporated into SCF psivars.

Properties will be evaluated at   0.000000,   0.000000,   0.000000 Bohr

Properties computed using the SCF density matrix

  Nuclear Dipole Moment: (a.u.)
     X:     0.0042      Y:    -1.0586      Z:     0.0000

  Electronic Dipole Moment: (a.u.)
     X:    -0.0022      Y:     0.2373      Z:     0.0000

  Dipole Moment: (a.u.)
     X:     0.0020      Y:    -0.8214      Z:     0.0000     Total:     0.8214

  Dipole Moment: (Debye)
     X:     0.0051      Y:    -2.0877      Z:     0.0000     Total:     2.0877


*** tstop() called on sgoodlett at Mon Jun 22 10:34:18 2020
Module time:
	user time   =       0.18 seconds =       0.00 minutes
	system time =       0.00 seconds =       0.00 minutes
	total time  =          0 seconds =       0.00 minutes
Total time:
	user time   =       0.18 seconds =       0.00 minutes
	system time =       0.00 seconds =       0.00 minutes
	total time  =          0 seconds =       0.00 minutes

*** Psi4 exiting successfully. Buy a developer a beer!
