
    -----------------------------------------------------------------------
          Psi4: An Open-Source Ab Initio Electronic Structure Package
                               Psi4 1.1 release

                         Git: Rev {} zzzzzzz 


    R. M. Parrish, L. A. Burns, D. G. A. Smith, A. C. Simmonett,
    A. E. DePrince III, E. G. Hohenstein, U. Bozkaya, A. Yu. Sokolov,
    R. Di Remigio, R. M. Richard, J. F. Gonthier, A. M. James,
    H. R. McAlexander, A. Kumar, M. Saitow, X. Wang, B. P. Pritchard,
    P. Verma, H. F. Schaefer III, K. Patkowski, R. A. King, E. F. Valeev,
    F. A. Evangelista, J. M. Turney, T. D. Crawford, and C. D. Sherrill,
    J. Chem. Theory Comput. in press (2017).
    (doi: 10.1021/acs.jctc.7b00174)

    -----------------------------------------------------------------------


    Psi4 started on: Monday, 22 June 2020 10:34AM

    Process ID:   6192
    PSIDATADIR: /usr/share/psi4
    Memory:     500.0 MiB
    Threads:    1
    
  ==> Input File <==

--------------------------------------------------------------------------
molecule {
0 1
O 0.0 0.0 -0.07117626194871772
H 0.0 -0.89161914868059 0.5698094956415423
H 0.0 0.89661914868059 0.5648094956415423

}

set e_convergence 11
set basis         cc-pVDZ
energy('scf')

--------------------------------------------------------------------------

*** tstart() called on sgoodlett
*** at Mon Jun 22 10:34:09 2020

   => Loading Basis Set <=

    Name: CC-PVDZ
    Role: ORBITAL
    Keyword: BASIS
    atoms 1   entry O          line   190 file /usr/share/psi4/basis/cc-pvdz.gbs 
    atoms 2-3 entry H          line    20 file /usr/share/psi4/basis/cc-pvdz.gbs 


         ---------------------------------------------------------
                                   SCF
            by Justin Turney, Rob Parrish, and Andy Simmonett
                              RHF Reference
                        1 Threads,    500 MiB Core
         ---------------------------------------------------------

  ==> Geometry <==

    Molecular point group: cs
    Full point group: Cs

    Geometry (in Angstrom), charge = 0, multiplicity = 1:

       Center              X                  Y                   Z               Mass       
    ------------   -----------------  -----------------  -----------------  -----------------
           O          0.000279787183     0.071456052647     0.000000000000    15.994914619560
           H          0.891898935864    -0.569529704943     0.000000000000     1.007825032070
           H         -0.896339361497    -0.564529704943     0.000000000000     1.007825032070

  Running in cs symmetry.

  Rotational constants: A =     23.10036  B =     10.46133  C =      7.20048 [cm^-1]
  Rotational constants: A = 692531.24276  B = 313622.65115  C = 215865.07360 [MHz]
  Nuclear repulsion =    8.002204760706681

  Charge       = 0
  Multiplicity = 1
  Electrons    = 10
  Nalpha       = 5
  Nbeta        = 5

  ==> Algorithm <==

  SCF Algorithm Type is DF.
  DIIS enabled.
  MOM disabled.
  Fractional occupation disabled.
  Guess Type is SAD.
  Energy threshold   = 1.00e-11
  Density threshold  = 1.00e-06
  Integral threshold = 0.00e+00

  ==> Primary Basis <==

  Basis Set: CC-PVDZ
    Blend: CC-PVDZ
    Number of shells: 12
    Number of basis function: 24
    Number of Cartesian functions: 25
    Spherical Harmonics?: true
    Max angular momentum: 2

   => Loading Basis Set <=

    Name: (CC-PVDZ AUX)
    Role: JKFIT
    Keyword: DF_BASIS_SCF
    atoms 1   entry O          line   220 file /usr/share/psi4/basis/cc-pvdz-jkfit.gbs 
    atoms 2-3 entry H          line    50 file /usr/share/psi4/basis/cc-pvdz-jkfit.gbs 

  ==> Pre-Iterations <==

   -------------------------------------------------------
    Irrep   Nso     Nmo     Nalpha   Nbeta   Ndocc  Nsocc
   -------------------------------------------------------
     A'        18      18       0       0       0       0
     A"         6       6       0       0       0       0
   -------------------------------------------------------
    Total      24      24       5       5       5       0
   -------------------------------------------------------

  ==> Integral Setup <==

  ==> DFJK: Density-Fitted J/K Matrices <==

    J tasked:                  Yes
    K tasked:                  Yes
    wK tasked:                  No
    OpenMP threads:              1
    Integrals threads:           1
    Memory (MB):               375
    Algorithm:                Core
    Integral Cache:           NONE
    Schwarz Cutoff:          1E-12
    Fitting Condition:       1E-12

   => Auxiliary Basis Set <=

  Basis Set: (CC-PVDZ AUX)
    Blend: CC-PVDZ-JKFIT
    Number of shells: 42
    Number of basis function: 116
    Number of Cartesian functions: 131
    Spherical Harmonics?: true
    Max angular momentum: 3

  Minimum eigenvalue in the overlap matrix is 4.7473600634E-02.
  Using Symmetric Orthogonalization.

  SCF Guess: Superposition of Atomic Densities via on-the-fly atomic UHF.

  ==> Iterations <==

                           Total Energy        Delta E     RMS |[F,P]|

   @DF-RHF iter   0:   -75.63037145860696   -7.56304e+01   6.54807e-02 
   @DF-RHF iter   1:   -75.96210448819720   -3.31733e-01   1.31686e-02 
   @DF-RHF iter   2:   -75.98100283905680   -1.88984e-02   7.68652e-03 DIIS
   @DF-RHF iter   3:   -75.98853599265965   -7.53315e-03   7.93083e-04 DIIS
   @DF-RHF iter   4:   -75.98871222137409   -1.76229e-04   2.40380e-04 DIIS
   @DF-RHF iter   5:   -75.98873645127371   -2.42299e-05   6.64131e-05 DIIS
   @DF-RHF iter   6:   -75.98873934999715   -2.89872e-06   1.34340e-05 DIIS
   @DF-RHF iter   7:   -75.98873947121885   -1.21222e-07   1.60725e-06 DIIS
   @DF-RHF iter   8:   -75.98873947226897   -1.05013e-09   3.26655e-07 DIIS
   @DF-RHF iter   9:   -75.98873947231043   -4.14531e-11   2.26438e-08 DIIS
   @DF-RHF iter  10:   -75.98873947231053   -9.94760e-14   2.31797e-09 DIIS

  ==> Post-Iterations <==

    Orbital Energies (a.u.)
    -----------------------

    Doubly Occupied:                                                      

       1Ap   -20.571046     2Ap    -1.274684     3Ap    -0.637018  
       4Ap    -0.532655     1App   -0.484198  

    Virtual:                                                              

       5Ap     0.157292     6Ap     0.230776     7Ap     0.719308  
       8Ap     0.727797     9Ap     1.169287     2App    1.188989  
      10Ap     1.261273     3App    1.440288    11Ap     1.511116  
       4App    1.676923    12Ap     1.788027    13Ap     1.896376  
      14Ap     2.161486    15Ap     2.202667     5App    3.157665  
       6App    3.225595    16Ap     3.305891    17Ap     3.753812  
      18Ap     3.966884  

    Final Occupation by Irrep:
             Ap   App 
    DOCC [     4,    1 ]

  Energy converged.

  @DF-RHF Final Energy:   -75.98873947231053

   => Energetics <=

    Nuclear Repulsion Energy =              8.0022047607066806
    One-Electron Energy =                -120.9826858992409484
    Two-Electron Energy =                  36.9917416662237315
    DFT Exchange-Correlation Energy =       0.0000000000000000
    Empirical Dispersion Energy =           0.0000000000000000
    PCM Polarization Energy =               0.0000000000000000
    EFP Energy =                            0.0000000000000000
    Total Energy =                        -75.9887394723105416



Properties will be evaluated at   0.000000,   0.000000,   0.000000 Bohr

Properties computed using the SCF density matrix

  Nuclear Dipole Moment: (a.u.)
     X:    -0.0042      Y:    -1.0628      Z:     0.0000

  Electronic Dipole Moment: (a.u.)
     X:     0.0013      Y:     0.2397      Z:     0.0000

  Dipole Moment: (a.u.)
     X:    -0.0029      Y:    -0.8232      Z:     0.0000     Total:     0.8232

  Dipole Moment: (Debye)
     X:    -0.0073      Y:    -2.0922      Z:     0.0000     Total:     2.0923


*** tstop() called on sgoodlett at Mon Jun 22 10:34:09 2020
Module time:
	user time   =       0.20 seconds =       0.00 minutes
	system time =       0.00 seconds =       0.00 minutes
	total time  =          0 seconds =       0.00 minutes
Total time:
	user time   =       0.20 seconds =       0.00 minutes
	system time =       0.00 seconds =       0.00 minutes
	total time  =          0 seconds =       0.00 minutes

*** Psi4 exiting successfully. Buy a developer a beer!
