
    -----------------------------------------------------------------------
          Psi4: An Open-Source Ab Initio Electronic Structure Package
                               Psi4 1.1 release

                         Git: Rev {} zzzzzzz 


    R. M. Parrish, L. A. Burns, D. G. A. Smith, A. C. Simmonett,
    A. E. DePrince III, E. G. Hohenstein, U. Bozkaya, A. Yu. Sokolov,
    R. Di Remigio, R. M. Richard, J. F. Gonthier, A. M. James,
    H. R. McAlexander, A. Kumar, M. Saitow, X. Wang, B. P. Pritchard,
    P. Verma, H. F. Schaefer III, K. Patkowski, R. A. King, E. F. Valeev,
    F. A. Evangelista, J. M. Turney, T. D. Crawford, and C. D. Sherrill,
    J. Chem. Theory Comput. in press (2017).
    (doi: 10.1021/acs.jctc.7b00174)

    -----------------------------------------------------------------------


    Psi4 started on: Monday, 22 June 2020 10:33AM

    Process ID:   5750
    PSIDATADIR: /usr/share/psi4
    Memory:     500.0 MiB
    Threads:    1
    
  ==> Input File <==

--------------------------------------------------------------------------
molecule {
0 1
O 0.0 -0.005 -0.07117626194871772
H 0.0 -0.89161914868059 0.5648094956415423
H 0.0 0.89161914868059 0.5648094956415423

}

set e_convergence 11
set basis         cc-pVDZ
energy('scf')

--------------------------------------------------------------------------

*** tstart() called on sgoodlett
*** at Mon Jun 22 10:33:46 2020

   => Loading Basis Set <=

    Name: CC-PVDZ
    Role: ORBITAL
    Keyword: BASIS
    atoms 1   entry O          line   190 file /usr/share/psi4/basis/cc-pvdz.gbs 
    atoms 2-3 entry H          line    20 file /usr/share/psi4/basis/cc-pvdz.gbs 


         ---------------------------------------------------------
                                   SCF
            by Justin Turney, Rob Parrish, and Andy Simmonett
                              RHF Reference
                        1 Threads,    500 MiB Core
         ---------------------------------------------------------

  ==> Geometry <==

    Molecular point group: cs
    Full point group: Cs

    Geometry (in Angstrom), charge = 0, multiplicity = 1:

       Center              X                  Y                   Z               Mass       
    ------------   -----------------  -----------------  -----------------  -----------------
           O          0.000559574366     0.071176265464     0.000000000000    15.994914619560
           H          0.887178723047    -0.564809492127     0.000000000000     1.007825032070
           H         -0.896059574314    -0.564809492127     0.000000000000     1.007825032070

  Running in cs symmetry.

  Rotational constants: A =     23.28381  B =     10.51963  C =      7.24592 [cm^-1]
  Rotational constants: A = 698031.15649  B = 315370.56791  C = 217227.26234 [MHz]
  Nuclear repulsion =    8.027689459792418

  Charge       = 0
  Multiplicity = 1
  Electrons    = 10
  Nalpha       = 5
  Nbeta        = 5

  ==> Algorithm <==

  SCF Algorithm Type is DF.
  DIIS enabled.
  MOM disabled.
  Fractional occupation disabled.
  Guess Type is SAD.
  Energy threshold   = 1.00e-11
  Density threshold  = 1.00e-06
  Integral threshold = 0.00e+00

  ==> Primary Basis <==

  Basis Set: CC-PVDZ
    Blend: CC-PVDZ
    Number of shells: 12
    Number of basis function: 24
    Number of Cartesian functions: 25
    Spherical Harmonics?: true
    Max angular momentum: 2

   => Loading Basis Set <=

    Name: (CC-PVDZ AUX)
    Role: JKFIT
    Keyword: DF_BASIS_SCF
    atoms 1   entry O          line   220 file /usr/share/psi4/basis/cc-pvdz-jkfit.gbs 
    atoms 2-3 entry H          line    50 file /usr/share/psi4/basis/cc-pvdz-jkfit.gbs 

  ==> Pre-Iterations <==

   -------------------------------------------------------
    Irrep   Nso     Nmo     Nalpha   Nbeta   Ndocc  Nsocc
   -------------------------------------------------------
     A'        18      18       0       0       0       0
     A"         6       6       0       0       0       0
   -------------------------------------------------------
    Total      24      24       5       5       5       0
   -------------------------------------------------------

  ==> Integral Setup <==

  ==> DFJK: Density-Fitted J/K Matrices <==

    J tasked:                  Yes
    K tasked:                  Yes
    wK tasked:                  No
    OpenMP threads:              1
    Integrals threads:           1
    Memory (MB):               375
    Algorithm:                Core
    Integral Cache:           NONE
    Schwarz Cutoff:          1E-12
    Fitting Condition:       1E-12

   => Auxiliary Basis Set <=

  Basis Set: (CC-PVDZ AUX)
    Blend: CC-PVDZ-JKFIT
    Number of shells: 42
    Number of basis function: 116
    Number of Cartesian functions: 131
    Spherical Harmonics?: true
    Max angular momentum: 3

  Minimum eigenvalue in the overlap matrix is 4.7132881844E-02.
  Using Symmetric Orthogonalization.

  SCF Guess: Superposition of Atomic Densities via on-the-fly atomic UHF.

  ==> Iterations <==

                           Total Energy        Delta E     RMS |[F,P]|

   @DF-RHF iter   0:   -75.67246844901477   -7.56725e+01   6.57379e-02 
   @DF-RHF iter   1:   -75.97146949950438   -2.99001e-01   1.12832e-02 
   @DF-RHF iter   2:   -75.98528001756810   -1.38105e-02   5.90920e-03 DIIS
   @DF-RHF iter   3:   -75.98993038111091   -4.65036e-03   9.49728e-04 DIIS
   @DF-RHF iter   4:   -75.99010793690057   -1.77556e-04   2.07003e-04 DIIS
   @DF-RHF iter   5:   -75.99012924373864   -2.13068e-05   6.17664e-05 DIIS
   @DF-RHF iter   6:   -75.99013173635500   -2.49262e-06   1.14344e-05 DIIS
   @DF-RHF iter   7:   -75.99013181914886   -8.27939e-08   1.37001e-06 DIIS
   @DF-RHF iter   8:   -75.99013182004718   -8.98325e-10   2.33685e-07 DIIS
   @DF-RHF iter   9:   -75.99013182006894   -2.17568e-11   3.13212e-08 DIIS
   @DF-RHF iter  10:   -75.99013182006917   -2.27374e-13   3.52952e-09 DIIS

  ==> Post-Iterations <==

    Orbital Energies (a.u.)
    -----------------------

    Doubly Occupied:                                                      

       1Ap   -20.570447     2Ap    -1.275813     3Ap    -0.638658  
       4Ap    -0.533130     1App   -0.484270  

    Virtual:                                                              

       5Ap     0.158076     6Ap     0.231540     7Ap     0.720555  
       8Ap     0.730311     9Ap     1.169127     2App    1.189522  
      10Ap     1.260812     3App    1.440487    11Ap     1.510773  
       4App    1.677486    12Ap     1.790203    13Ap     1.896802  
      14Ap     2.167353    15Ap     2.208659     5App    3.159598  
       6App    3.228841    16Ap     3.309583    17Ap     3.757886  
      18Ap     3.970627  

    Final Occupation by Irrep:
             Ap   App 
    DOCC [     4,    1 ]

  Energy converged.

  @DF-RHF Final Energy:   -75.99013182006917

   => Energetics <=

    Nuclear Repulsion Energy =              8.0276894597924180
    One-Electron Energy =                -121.0310067413774107
    Two-Electron Energy =                  37.0131854615158460
    DFT Exchange-Correlation Energy =       0.0000000000000000
    Empirical Dispersion Energy =           0.0000000000000000
    PCM Polarization Energy =               0.0000000000000000
    EFP Energy =                            0.0000000000000000
    Total Energy =                        -75.9901318200691520



Properties will be evaluated at   0.000000,   0.000000,   0.000000 Bohr

Properties computed using the SCF density matrix

  Nuclear Dipole Moment: (a.u.)
     X:    -0.0083      Y:    -1.0586      Z:     0.0000

  Electronic Dipole Moment: (a.u.)
     X:     0.0043      Y:     0.2367      Z:     0.0000

  Dipole Moment: (a.u.)
     X:    -0.0040      Y:    -0.8220      Z:     0.0000     Total:     0.8220

  Dipole Moment: (Debye)
     X:    -0.0102      Y:    -2.0893      Z:     0.0000     Total:     2.0893


*** tstop() called on sgoodlett at Mon Jun 22 10:33:47 2020
Module time:
	user time   =       0.19 seconds =       0.00 minutes
	system time =       0.00 seconds =       0.00 minutes
	total time  =          1 seconds =       0.02 minutes
Total time:
	user time   =       0.19 seconds =       0.00 minutes
	system time =       0.00 seconds =       0.00 minutes
	total time  =          1 seconds =       0.02 minutes

*** Psi4 exiting successfully. Buy a developer a beer!
