
    -----------------------------------------------------------------------
          Psi4: An Open-Source Ab Initio Electronic Structure Package
                               Psi4 1.1 release

                         Git: Rev {} zzzzzzz 


    R. M. Parrish, L. A. Burns, D. G. A. Smith, A. C. Simmonett,
    A. E. DePrince III, E. G. Hohenstein, U. Bozkaya, A. Yu. Sokolov,
    R. Di Remigio, R. M. Richard, J. F. Gonthier, A. M. James,
    H. R. McAlexander, A. Kumar, M. Saitow, X. Wang, B. P. Pritchard,
    P. Verma, H. F. Schaefer III, K. Patkowski, R. A. King, E. F. Valeev,
    F. A. Evangelista, J. M. Turney, T. D. Crawford, and C. D. Sherrill,
    J. Chem. Theory Comput. in press (2017).
    (doi: 10.1021/acs.jctc.7b00174)

    -----------------------------------------------------------------------


    Psi4 started on: Monday, 22 June 2020 10:33AM

    Process ID:   5776
    PSIDATADIR: /usr/share/psi4
    Memory:     500.0 MiB
    Threads:    1
    
  ==> Input File <==

--------------------------------------------------------------------------
molecule {
0 1
O 0.0 0.0 -0.07617626194871772
H 0.0 -0.89161914868059 0.5648094956415423
H -0.005 0.89161914868059 0.5648094956415423

}

set e_convergence 11
set basis         cc-pVDZ
energy('scf')

--------------------------------------------------------------------------

*** tstart() called on sgoodlett
*** at Mon Jun 22 10:33:48 2020

   => Loading Basis Set <=

    Name: CC-PVDZ
    Role: ORBITAL
    Keyword: BASIS
    atoms 1   entry O          line   190 file /usr/share/psi4/basis/cc-pvdz.gbs 
    atoms 2-3 entry H          line    20 file /usr/share/psi4/basis/cc-pvdz.gbs 


         ---------------------------------------------------------
                                   SCF
            by Justin Turney, Rob Parrish, and Andy Simmonett
                              RHF Reference
                        1 Threads,    500 MiB Core
         ---------------------------------------------------------

  ==> Geometry <==

    Molecular point group: cs
    Full point group: Cs

    Geometry (in Angstrom), charge = 0, multiplicity = 1:

       Center              X                  Y                   Z               Mass       
    ------------   -----------------  -----------------  -----------------  -----------------
           O          0.071736385447    -0.000000000000     0.000000000000    15.994914619560
           H         -0.569244496896    -0.891622653480     0.000000000000     1.007825032070
           H         -0.569263997961     0.891622653480     0.000000000000     1.007825032070

  Running in cs symmetry.

  Rotational constants: A =     22.92046  B =     10.52008  C =      7.21056 [cm^-1]
  Rotational constants: A = 687138.20599  B = 315384.15545  C = 216167.25084 [MHz]
  Nuclear repulsion =    8.007074424763807

  Charge       = 0
  Multiplicity = 1
  Electrons    = 10
  Nalpha       = 5
  Nbeta        = 5

  ==> Algorithm <==

  SCF Algorithm Type is DF.
  DIIS enabled.
  MOM disabled.
  Fractional occupation disabled.
  Guess Type is SAD.
  Energy threshold   = 1.00e-11
  Density threshold  = 1.00e-06
  Integral threshold = 0.00e+00

  ==> Primary Basis <==

  Basis Set: CC-PVDZ
    Blend: CC-PVDZ
    Number of shells: 12
    Number of basis function: 24
    Number of Cartesian functions: 25
    Spherical Harmonics?: true
    Max angular momentum: 2

   => Loading Basis Set <=

    Name: (CC-PVDZ AUX)
    Role: JKFIT
    Keyword: DF_BASIS_SCF
    atoms 1   entry O          line   220 file /usr/share/psi4/basis/cc-pvdz-jkfit.gbs 
    atoms 2-3 entry H          line    50 file /usr/share/psi4/basis/cc-pvdz-jkfit.gbs 

  ==> Pre-Iterations <==

   -------------------------------------------------------
    Irrep   Nso     Nmo     Nalpha   Nbeta   Ndocc  Nsocc
   -------------------------------------------------------
     A'        18      18       0       0       0       0
     A"         6       6       0       0       0       0
   -------------------------------------------------------
    Total      24      24       5       5       5       0
   -------------------------------------------------------

  ==> Integral Setup <==

  ==> DFJK: Density-Fitted J/K Matrices <==

    J tasked:                  Yes
    K tasked:                  Yes
    wK tasked:                  No
    OpenMP threads:              1
    Integrals threads:           1
    Memory (MB):               375
    Algorithm:                Core
    Integral Cache:           NONE
    Schwarz Cutoff:          1E-12
    Fitting Condition:       1E-12

   => Auxiliary Basis Set <=

  Basis Set: (CC-PVDZ AUX)
    Blend: CC-PVDZ-JKFIT
    Number of shells: 42
    Number of basis function: 116
    Number of Cartesian functions: 131
    Spherical Harmonics?: true
    Max angular momentum: 3

  Minimum eigenvalue in the overlap matrix is 4.7298541471E-02.
  Using Symmetric Orthogonalization.

  SCF Guess: Superposition of Atomic Densities via on-the-fly atomic UHF.

  ==> Iterations <==

                           Total Energy        Delta E     RMS |[F,P]|

   @DF-RHF iter   0:   -75.74648868249666   -7.57465e+01   6.62402e-02 
   @DF-RHF iter   1:   -75.94518833841499   -1.98700e-01   1.51521e-02 
   @DF-RHF iter   2:   -75.97696256413809   -3.17742e-02   9.09364e-03 DIIS
   @DF-RHF iter   3:   -75.98790227661490   -1.09397e-02   1.50990e-03 DIIS
   @DF-RHF iter   4:   -75.98896499361979   -1.06272e-03   5.48070e-04 DIIS
   @DF-RHF iter   5:   -75.98912177984906   -1.56786e-04   1.17389e-04 DIIS
   @DF-RHF iter   6:   -75.98913095976184   -9.17991e-06   2.31897e-05 DIIS
   @DF-RHF iter   7:   -75.98913129440302   -3.34641e-07   3.70212e-06 DIIS
   @DF-RHF iter   8:   -75.98913130023969   -5.83667e-09   4.80330e-07 DIIS
   @DF-RHF iter   9:   -75.98913130030598   -6.62936e-11   3.46424e-08 DIIS
   @DF-RHF iter  10:   -75.98913130030647   -4.83169e-13   5.43253e-09 DIIS

  ==> Post-Iterations <==

    Orbital Energies (a.u.)
    -----------------------

    Doubly Occupied:                                                      

       1Ap   -20.571225     2Ap    -1.275122     3Ap    -0.636813  
       4Ap    -0.533434     1App   -0.484396  

    Virtual:                                                              

       5Ap     0.157489     6Ap     0.230830     7Ap     0.718513  
       8Ap     0.729453     9Ap     1.169326     2App    1.188905  
      10Ap     1.261693     3App    1.441109    11Ap     1.508503  
       4App    1.675746    12Ap     1.789640    13Ap     1.896183  
      14Ap     2.161685    15Ap     2.203457     5App    3.159274  
       6App    3.225014    16Ap     3.308877    17Ap     3.751668  
      18Ap     3.969230  

    Final Occupation by Irrep:
             Ap   App 
    DOCC [     4,    1 ]

  Energy converged.

  @DF-RHF Final Energy:   -75.98913130030647

   => Energetics <=

    Nuclear Repulsion Energy =              8.0070744247638075
    One-Electron Energy =                -120.9904304376166806
    Two-Electron Energy =                  36.9942247125464121
    DFT Exchange-Correlation Energy =       0.0000000000000000
    Empirical Dispersion Energy =           0.0000000000000000
    PCM Polarization Energy =               0.0000000000000000
    EFP Energy =                            0.0000000000000000
    Total Energy =                        -75.9891313003064681

    Alert: EFP and PCM quantities not currently incorporated into SCF psivars.

Properties will be evaluated at   0.000000,   0.000000,   0.000000 Bohr

Properties computed using the SCF density matrix

  Nuclear Dipole Moment: (a.u.)
     X:    -1.0670      Y:     0.0000      Z:     0.0000

  Electronic Dipole Moment: (a.u.)
     X:     0.2414      Y:    -0.0000      Z:     0.0000

  Dipole Moment: (a.u.)
     X:    -0.8255      Y:    -0.0000      Z:     0.0000     Total:     0.8255

  Dipole Moment: (Debye)
     X:    -2.0983      Y:    -0.0000      Z:     0.0000     Total:     2.0983


*** tstop() called on sgoodlett at Mon Jun 22 10:33:48 2020
Module time:
	user time   =       0.18 seconds =       0.00 minutes
	system time =       0.01 seconds =       0.00 minutes
	total time  =          0 seconds =       0.00 minutes
Total time:
	user time   =       0.18 seconds =       0.00 minutes
	system time =       0.01 seconds =       0.00 minutes
	total time  =          0 seconds =       0.00 minutes

*** Psi4 exiting successfully. Buy a developer a beer!
