
    -----------------------------------------------------------------------
          Psi4: An Open-Source Ab Initio Electronic Structure Package
                               Psi4 1.1 release

                         Git: Rev {} zzzzzzz 


    R. M. Parrish, L. A. Burns, D. G. A. Smith, A. C. Simmonett,
    A. E. DePrince III, E. G. Hohenstein, U. Bozkaya, A. Yu. Sokolov,
    R. Di Remigio, R. M. Richard, J. F. Gonthier, A. M. James,
    H. R. McAlexander, A. Kumar, M. Saitow, X. Wang, B. P. Pritchard,
    P. Verma, H. F. Schaefer III, K. Patkowski, R. A. King, E. F. Valeev,
    F. A. Evangelista, J. M. Turney, T. D. Crawford, and C. D. Sherrill,
    J. Chem. Theory Comput. in press (2017).
    (doi: 10.1021/acs.jctc.7b00174)

    -----------------------------------------------------------------------


    Psi4 started on: Monday, 22 June 2020 10:33AM

    Process ID:   5711
    PSIDATADIR: /usr/share/psi4
    Memory:     500.0 MiB
    Threads:    1
    
  ==> Input File <==

--------------------------------------------------------------------------
molecule {
0 1
O 0.0 0.0 -0.07117626194871772
H 0.0 -0.89161914868059 0.5598094956415423
H -0.005 0.89161914868059 0.5648094956415423

}

set e_convergence 11
set basis         cc-pVDZ
energy('scf')

--------------------------------------------------------------------------

*** tstart() called on sgoodlett
*** at Mon Jun 22 10:33:44 2020

   => Loading Basis Set <=

    Name: CC-PVDZ
    Role: ORBITAL
    Keyword: BASIS
    atoms 1   entry O          line   190 file /usr/share/psi4/basis/cc-pvdz.gbs 
    atoms 2-3 entry H          line    20 file /usr/share/psi4/basis/cc-pvdz.gbs 


         ---------------------------------------------------------
                                   SCF
            by Justin Turney, Rob Parrish, and Andy Simmonett
                              RHF Reference
                        1 Threads,    500 MiB Core
         ---------------------------------------------------------

  ==> Geometry <==

    Molecular point group: cs
    Full point group: Cs

    Geometry (in Angstrom), charge = 0, multiplicity = 1:

       Center              X                  Y                   Z               Mass       
    ------------   -----------------  -----------------  -----------------  -----------------
           O          0.070897030357    -0.000000000000     0.000000000000    15.994914619560
           H         -0.560083813735    -0.891622625871     0.000000000000     1.007825032070
           H         -0.565103506739     0.891622625871     0.000000000000     1.007825032070

  Running in cs symmetry.

  Rotational constants: A =     23.46673  B =     10.51993  C =      7.26368 [cm^-1]
  Rotational constants: A = 703514.77987  B = 315379.64544  C = 217759.79564 [MHz]
  Nuclear repulsion =    8.037815294270631

  Charge       = 0
  Multiplicity = 1
  Electrons    = 10
  Nalpha       = 5
  Nbeta        = 5

  ==> Algorithm <==

  SCF Algorithm Type is DF.
  DIIS enabled.
  MOM disabled.
  Fractional occupation disabled.
  Guess Type is SAD.
  Energy threshold   = 1.00e-11
  Density threshold  = 1.00e-06
  Integral threshold = 0.00e+00

  ==> Primary Basis <==

  Basis Set: CC-PVDZ
    Blend: CC-PVDZ
    Number of shells: 12
    Number of basis function: 24
    Number of Cartesian functions: 25
    Spherical Harmonics?: true
    Max angular momentum: 2

   => Loading Basis Set <=

    Name: (CC-PVDZ AUX)
    Role: JKFIT
    Keyword: DF_BASIS_SCF
    atoms 1   entry O          line   220 file /usr/share/psi4/basis/cc-pvdz-jkfit.gbs 
    atoms 2-3 entry H          line    50 file /usr/share/psi4/basis/cc-pvdz-jkfit.gbs 

  ==> Pre-Iterations <==

   -------------------------------------------------------
    Irrep   Nso     Nmo     Nalpha   Nbeta   Ndocc  Nsocc
   -------------------------------------------------------
     A'        18      18       0       0       0       0
     A"         6       6       0       0       0       0
   -------------------------------------------------------
    Total      24      24       5       5       5       0
   -------------------------------------------------------

  ==> Integral Setup <==

  ==> DFJK: Density-Fitted J/K Matrices <==

    J tasked:                  Yes
    K tasked:                  Yes
    wK tasked:                  No
    OpenMP threads:              1
    Integrals threads:           1
    Memory (MB):               375
    Algorithm:                Core
    Integral Cache:           NONE
    Schwarz Cutoff:          1E-12
    Fitting Condition:       1E-12

   => Auxiliary Basis Set <=

  Basis Set: (CC-PVDZ AUX)
    Blend: CC-PVDZ-JKFIT
    Number of shells: 42
    Number of basis function: 116
    Number of Cartesian functions: 131
    Spherical Harmonics?: true
    Max angular momentum: 3

  Minimum eigenvalue in the overlap matrix is 4.7057815704E-02.
  Using Symmetric Orthogonalization.

  SCF Guess: Superposition of Atomic Densities via on-the-fly atomic UHF.

  ==> Iterations <==

                           Total Energy        Delta E     RMS |[F,P]|

   @DF-RHF iter   0:   -75.64521136594236   -7.56452e+01   6.59937e-02 
   @DF-RHF iter   1:   -75.96861776727573   -3.23406e-01   1.22883e-02 
   @DF-RHF iter   2:   -75.98448759139266   -1.58698e-02   6.86559e-03 DIIS
   @DF-RHF iter   3:   -75.99053106609988   -6.04347e-03   7.58517e-04 DIIS
   @DF-RHF iter   4:   -75.99063334460467   -1.02279e-04   1.32843e-04 DIIS
   @DF-RHF iter   5:   -75.99063751757733   -4.17297e-06   1.33646e-05 DIIS
   @DF-RHF iter   6:   -75.99063757552796   -5.79506e-08   2.87479e-06 DIIS
   @DF-RHF iter   7:   -75.99063758046408   -4.93613e-09   8.13496e-07 DIIS
   @DF-RHF iter   8:   -75.99063758092218   -4.58101e-10   1.03889e-07 DIIS
   @DF-RHF iter   9:   -75.99063758092636   -4.17799e-12   1.57242e-08 DIIS

  ==> Post-Iterations <==

    Orbital Energies (a.u.)
    -----------------------

    Doubly Occupied:                                                      

       1Ap   -20.570059     2Ap    -1.276140     3Ap    -0.639569  
       4Ap    -0.532979     1App   -0.484204  

    Virtual:                                                              

       5Ap     0.158387     6Ap     0.231879     7Ap     0.722429  
       8Ap     0.729840     9Ap     1.169066     2App    1.189839  
      10Ap     1.260324     3App    1.440149    11Ap     1.511913  
       4App    1.678374    12Ap     1.790497    13Ap     1.897182  
      14Ap     2.171564    15Ap     2.209723     5App    3.159930  
       6App    3.230532    16Ap     3.309829    17Ap     3.761216  
      18Ap     3.971113  

    Final Occupation by Irrep:
             Ap   App 
    DOCC [     4,    1 ]

  Energy converged.

  @DF-RHF Final Energy:   -75.99063758092636

   => Energetics <=

    Nuclear Repulsion Energy =              8.0378152942706311
    One-Electron Energy =                -121.0510027101537531
    Two-Electron Energy =                  37.0225498349567630
    DFT Exchange-Correlation Energy =       0.0000000000000000
    Empirical Dispersion Energy =           0.0000000000000000
    PCM Polarization Energy =               0.0000000000000000
    EFP Energy =                            0.0000000000000000
    Total Energy =                        -75.9906375809263608

    Alert: EFP and PCM quantities not currently incorporated into SCF psivars.

Properties will be evaluated at   0.000000,   0.000000,   0.000000 Bohr

Properties computed using the SCF density matrix

  Nuclear Dipole Moment: (a.u.)
     X:    -1.0545      Y:     0.0000      Z:     0.0000

  Electronic Dipole Moment: (a.u.)
     X:     0.2343      Y:    -0.0009      Z:     0.0000

  Dipole Moment: (a.u.)
     X:    -0.8202      Y:    -0.0009      Z:     0.0000     Total:     0.8202

  Dipole Moment: (Debye)
     X:    -2.0847      Y:    -0.0022      Z:     0.0000     Total:     2.0847


*** tstop() called on sgoodlett at Mon Jun 22 10:33:45 2020
Module time:
	user time   =       0.19 seconds =       0.00 minutes
	system time =       0.00 seconds =       0.00 minutes
	total time  =          1 seconds =       0.02 minutes
Total time:
	user time   =       0.19 seconds =       0.00 minutes
	system time =       0.00 seconds =       0.00 minutes
	total time  =          1 seconds =       0.02 minutes

*** Psi4 exiting successfully. Buy a developer a beer!
