
    -----------------------------------------------------------------------
          Psi4: An Open-Source Ab Initio Electronic Structure Package
                               Psi4 1.1 release

                         Git: Rev {} zzzzzzz 


    R. M. Parrish, L. A. Burns, D. G. A. Smith, A. C. Simmonett,
    A. E. DePrince III, E. G. Hohenstein, U. Bozkaya, A. Yu. Sokolov,
    R. Di Remigio, R. M. Richard, J. F. Gonthier, A. M. James,
    H. R. McAlexander, A. Kumar, M. Saitow, X. Wang, B. P. Pritchard,
    P. Verma, H. F. Schaefer III, K. Patkowski, R. A. King, E. F. Valeev,
    F. A. Evangelista, J. M. Turney, T. D. Crawford, and C. D. Sherrill,
    J. Chem. Theory Comput. in press (2017).
    (doi: 10.1021/acs.jctc.7b00174)

    -----------------------------------------------------------------------


    Psi4 started on: Monday, 22 June 2020 10:33AM

    Process ID:   5581
    PSIDATADIR: /usr/share/psi4
    Memory:     500.0 MiB
    Threads:    1
    
  ==> Input File <==

--------------------------------------------------------------------------
molecule {
0 1
O 0.0 0.005 -0.06617626194871772
H 0.0 -0.89161914868059 0.5648094956415423
H 0.0 0.89161914868059 0.5648094956415423

}

set e_convergence 11
set basis         cc-pVDZ
energy('scf')

--------------------------------------------------------------------------

*** tstart() called on sgoodlett
*** at Mon Jun 22 10:33:38 2020

   => Loading Basis Set <=

    Name: CC-PVDZ
    Role: ORBITAL
    Keyword: BASIS
    atoms 1   entry O          line   190 file /usr/share/psi4/basis/cc-pvdz.gbs 
    atoms 2-3 entry H          line    20 file /usr/share/psi4/basis/cc-pvdz.gbs 


         ---------------------------------------------------------
                                   SCF
            by Justin Turney, Rob Parrish, and Andy Simmonett
                              RHF Reference
                        1 Threads,    500 MiB Core
         ---------------------------------------------------------

  ==> Geometry <==

    Molecular point group: cs
    Full point group: Cs

    Geometry (in Angstrom), charge = 0, multiplicity = 1:

       Center              X                  Y                   Z               Mass       
    ------------   -----------------  -----------------  -----------------  -----------------
           O         -0.000559574366     0.070616691097     0.000000000000    15.994914619560
           H          0.896059574314    -0.560369066493     0.000000000000     1.007825032070
           H         -0.887178723047    -0.560369066493     0.000000000000     1.007825032070

  Running in cs symmetry.

  Rotational constants: A =     23.65427  B =     10.51964  C =      7.28141 [cm^-1]
  Rotational constants: A = 709137.07664  B = 315370.77266  C = 218291.25851 [MHz]
  Nuclear repulsion =    8.048187105261061

  Charge       = 0
  Multiplicity = 1
  Electrons    = 10
  Nalpha       = 5
  Nbeta        = 5

  ==> Algorithm <==

  SCF Algorithm Type is DF.
  DIIS enabled.
  MOM disabled.
  Fractional occupation disabled.
  Guess Type is SAD.
  Energy threshold   = 1.00e-11
  Density threshold  = 1.00e-06
  Integral threshold = 0.00e+00

  ==> Primary Basis <==

  Basis Set: CC-PVDZ
    Blend: CC-PVDZ
    Number of shells: 12
    Number of basis function: 24
    Number of Cartesian functions: 25
    Spherical Harmonics?: true
    Max angular momentum: 2

   => Loading Basis Set <=

    Name: (CC-PVDZ AUX)
    Role: JKFIT
    Keyword: DF_BASIS_SCF
    atoms 1   entry O          line   220 file /usr/share/psi4/basis/cc-pvdz-jkfit.gbs 
    atoms 2-3 entry H          line    50 file /usr/share/psi4/basis/cc-pvdz-jkfit.gbs 

  ==> Pre-Iterations <==

   -------------------------------------------------------
    Irrep   Nso     Nmo     Nalpha   Nbeta   Ndocc  Nsocc
   -------------------------------------------------------
     A'        18      18       0       0       0       0
     A"         6       6       0       0       0       0
   -------------------------------------------------------
    Total      24      24       5       5       5       0
   -------------------------------------------------------

  ==> Integral Setup <==

  ==> DFJK: Density-Fitted J/K Matrices <==

    J tasked:                  Yes
    K tasked:                  Yes
    wK tasked:                  No
    OpenMP threads:              1
    Integrals threads:           1
    Memory (MB):               375
    Algorithm:                Core
    Integral Cache:           NONE
    Schwarz Cutoff:          1E-12
    Fitting Condition:       1E-12

   => Auxiliary Basis Set <=

  Basis Set: (CC-PVDZ AUX)
    Blend: CC-PVDZ-JKFIT
    Number of shells: 42
    Number of basis function: 116
    Number of Cartesian functions: 131
    Spherical Harmonics?: true
    Max angular momentum: 3

  Minimum eigenvalue in the overlap matrix is 4.6974662516E-02.
  Using Symmetric Orthogonalization.

  SCF Guess: Superposition of Atomic Densities via on-the-fly atomic UHF.

  ==> Iterations <==

                           Total Energy        Delta E     RMS |[F,P]|

   @DF-RHF iter   0:   -75.74751752716196   -7.57475e+01   6.69155e-02 
   @DF-RHF iter   1:   -75.94845565889503   -2.00938e-01   1.50424e-02 
   @DF-RHF iter   2:   -75.97938567874702   -3.09300e-02   8.94813e-03 DIIS
   @DF-RHF iter   3:   -75.98996165717068   -1.05760e-02   1.47096e-03 DIIS
   @DF-RHF iter   4:   -75.99096147698106   -9.99820e-04   5.33111e-04 DIIS
   @DF-RHF iter   5:   -75.99110957246907   -1.48095e-04   1.14367e-04 DIIS
   @DF-RHF iter   6:   -75.99111821817897   -8.64571e-06   2.19759e-05 DIIS
   @DF-RHF iter   7:   -75.99111851668786   -2.98509e-07   3.50469e-06 DIIS
   @DF-RHF iter   8:   -75.99111852191814   -5.23028e-09   4.62211e-07 DIIS
   @DF-RHF iter   9:   -75.99111852198121   -6.30678e-11   3.39144e-08 DIIS
   @DF-RHF iter  10:   -75.99111852198165   -4.40536e-13   5.48395e-09 DIIS

  ==> Post-Iterations <==

    Orbital Energies (a.u.)
    -----------------------

    Doubly Occupied:                                                      

       1Ap   -20.569669     2Ap    -1.276492     3Ap    -0.640499  
       4Ap    -0.532821     1App   -0.484142  

    Virtual:                                                              

       5Ap     0.158673     6Ap     0.232228     7Ap     0.723025  
       8Ap     0.730721     9Ap     1.168967     2App    1.190140  
      10Ap     1.259902     3App    1.439848    11Ap     1.513040  
       4App    1.679254    12Ap     1.790767    13Ap     1.897453  
      14Ap     2.173972    15Ap     2.212865     5App    3.160021  
       6App    3.232519    16Ap     3.310105    17Ap     3.764368  
      18Ap     3.971795  

    Final Occupation by Irrep:
             Ap   App 
    DOCC [     4,    1 ]

  Energy converged.

  @DF-RHF Final Energy:   -75.99111852198165

   => Energetics <=

    Nuclear Repulsion Energy =              8.0481871052610607
    One-Electron Energy =                -121.0713638722309611
    Two-Electron Energy =                  37.0320582449882352
    DFT Exchange-Correlation Energy =       0.0000000000000000
    Empirical Dispersion Energy =           0.0000000000000000
    PCM Polarization Energy =               0.0000000000000000
    EFP Energy =                            0.0000000000000000
    Total Energy =                        -75.9911185219816616

    Alert: EFP and PCM quantities not currently incorporated into SCF psivars.

Properties will be evaluated at   0.000000,   0.000000,   0.000000 Bohr

Properties computed using the SCF density matrix

  Nuclear Dipole Moment: (a.u.)
     X:     0.0083      Y:    -1.0503      Z:     0.0000

  Electronic Dipole Moment: (a.u.)
     X:    -0.0043      Y:     0.2319      Z:     0.0000

  Dipole Moment: (a.u.)
     X:     0.0041      Y:    -0.8184      Z:     0.0000     Total:     0.8184

  Dipole Moment: (Debye)
     X:     0.0103      Y:    -2.0801      Z:     0.0000     Total:     2.0802


*** tstop() called on sgoodlett at Mon Jun 22 10:33:38 2020
Module time:
	user time   =       0.18 seconds =       0.00 minutes
	system time =       0.01 seconds =       0.00 minutes
	total time  =          0 seconds =       0.00 minutes
Total time:
	user time   =       0.18 seconds =       0.00 minutes
	system time =       0.01 seconds =       0.00 minutes
	total time  =          0 seconds =       0.00 minutes

*** Psi4 exiting successfully. Buy a developer a beer!
