
    -----------------------------------------------------------------------
          Psi4: An Open-Source Ab Initio Electronic Structure Package
                               Psi4 1.1 release

                         Git: Rev {} zzzzzzz 


    R. M. Parrish, L. A. Burns, D. G. A. Smith, A. C. Simmonett,
    A. E. DePrince III, E. G. Hohenstein, U. Bozkaya, A. Yu. Sokolov,
    R. Di Remigio, R. M. Richard, J. F. Gonthier, A. M. James,
    H. R. McAlexander, A. Kumar, M. Saitow, X. Wang, B. P. Pritchard,
    P. Verma, H. F. Schaefer III, K. Patkowski, R. A. King, E. F. Valeev,
    F. A. Evangelista, J. M. Turney, T. D. Crawford, and C. D. Sherrill,
    J. Chem. Theory Comput. in press (2017).
    (doi: 10.1021/acs.jctc.7b00174)

    -----------------------------------------------------------------------


    Psi4 started on: Monday, 22 June 2020 10:34AM

    Process ID:   6166
    PSIDATADIR: /usr/share/psi4
    Memory:     500.0 MiB
    Threads:    1
    
  ==> Input File <==

--------------------------------------------------------------------------
molecule {
0 1
O 0.0 0.0 -0.06617626194871772
H 0.0 -0.88661914868059 0.5648094956415423
H 0.0 0.89161914868059 0.5648094956415423

}

set e_convergence 11
set basis         cc-pVDZ
energy('scf')

--------------------------------------------------------------------------

*** tstart() called on sgoodlett
*** at Mon Jun 22 10:34:08 2020

   => Loading Basis Set <=

    Name: CC-PVDZ
    Role: ORBITAL
    Keyword: BASIS
    atoms 1   entry O          line   190 file /usr/share/psi4/basis/cc-pvdz.gbs 
    atoms 2-3 entry H          line    20 file /usr/share/psi4/basis/cc-pvdz.gbs 


         ---------------------------------------------------------
                                   SCF
            by Justin Turney, Rob Parrish, and Andy Simmonett
                              RHF Reference
                        1 Threads,    500 MiB Core
         ---------------------------------------------------------

  ==> Geometry <==

    Molecular point group: cs
    Full point group: Cs

    Geometry (in Angstrom), charge = 0, multiplicity = 1:

       Center              X                  Y                   Z               Mass       
    ------------   -----------------  -----------------  -----------------  -----------------
           O          0.000279787183     0.070616691097     0.000000000000    15.994914619560
           H          0.886898935864    -0.560369066493     0.000000000000     1.007825032070
           H         -0.891339361497    -0.560369066493     0.000000000000     1.007825032070

  Running in cs symmetry.

  Rotational constants: A =     23.65338  B =     10.57928  C =      7.30985 [cm^-1]
  Rotational constants: A = 709110.41832  B = 317158.69001  C = 219143.81863 [MHz]
  Nuclear repulsion =    8.063462376131319

  Charge       = 0
  Multiplicity = 1
  Electrons    = 10
  Nalpha       = 5
  Nbeta        = 5

  ==> Algorithm <==

  SCF Algorithm Type is DF.
  DIIS enabled.
  MOM disabled.
  Fractional occupation disabled.
  Guess Type is SAD.
  Energy threshold   = 1.00e-11
  Density threshold  = 1.00e-06
  Integral threshold = 0.00e+00

  ==> Primary Basis <==

  Basis Set: CC-PVDZ
    Blend: CC-PVDZ
    Number of shells: 12
    Number of basis function: 24
    Number of Cartesian functions: 25
    Spherical Harmonics?: true
    Max angular momentum: 2

   => Loading Basis Set <=

    Name: (CC-PVDZ AUX)
    Role: JKFIT
    Keyword: DF_BASIS_SCF
    atoms 1   entry O          line   220 file /usr/share/psi4/basis/cc-pvdz-jkfit.gbs 
    atoms 2-3 entry H          line    50 file /usr/share/psi4/basis/cc-pvdz-jkfit.gbs 

  ==> Pre-Iterations <==

   -------------------------------------------------------
    Irrep   Nso     Nmo     Nalpha   Nbeta   Ndocc  Nsocc
   -------------------------------------------------------
     A'        18      18       0       0       0       0
     A"         6       6       0       0       0       0
   -------------------------------------------------------
    Total      24      24       5       5       5       0
   -------------------------------------------------------

  ==> Integral Setup <==

  ==> DFJK: Density-Fitted J/K Matrices <==

    J tasked:                  Yes
    K tasked:                  Yes
    wK tasked:                  No
    OpenMP threads:              1
    Integrals threads:           1
    Memory (MB):               375
    Algorithm:                Core
    Integral Cache:           NONE
    Schwarz Cutoff:          1E-12
    Fitting Condition:       1E-12

   => Auxiliary Basis Set <=

  Basis Set: (CC-PVDZ AUX)
    Blend: CC-PVDZ-JKFIT
    Number of shells: 42
    Number of basis function: 116
    Number of Cartesian functions: 131
    Spherical Harmonics?: true
    Max angular momentum: 3

  Minimum eigenvalue in the overlap matrix is 4.6723113297E-02.
  Using Symmetric Orthogonalization.

  SCF Guess: Superposition of Atomic Densities via on-the-fly atomic UHF.

  ==> Iterations <==

                           Total Energy        Delta E     RMS |[F,P]|

   @DF-RHF iter   0:   -75.76063496242882   -7.57606e+01   6.72494e-02 
   @DF-RHF iter   1:   -75.94871695315632   -1.88082e-01   1.50983e-02 
   @DF-RHF iter   2:   -75.98020765149937   -3.14907e-02   8.95108e-03 DIIS
   @DF-RHF iter   3:   -75.99081539627961   -1.06077e-02   1.50230e-03 DIIS
   @DF-RHF iter   4:   -75.99185744112010   -1.04204e-03   5.38674e-04 DIIS
   @DF-RHF iter   5:   -75.99200813224347   -1.50691e-04   1.14714e-04 DIIS
   @DF-RHF iter   6:   -75.99201679821367   -8.66597e-06   2.22015e-05 DIIS
   @DF-RHF iter   7:   -75.99201710231686   -3.04103e-07   3.51822e-06 DIIS
   @DF-RHF iter   8:   -75.99201710757792   -5.26106e-09   4.66775e-07 DIIS
   @DF-RHF iter   9:   -75.99201710764147   -6.35509e-11   3.44483e-08 DIIS
   @DF-RHF iter  10:   -75.99201710764196   -4.83169e-13   5.38807e-09 DIIS

  ==> Post-Iterations <==

    Orbital Energies (a.u.)
    -----------------------

    Doubly Occupied:                                                      

       1Ap   -20.569460     2Ap    -1.277277     3Ap    -0.641221  
       4Ap    -0.533457     1App   -0.484279  

    Virtual:                                                              

       5Ap     0.159181     6Ap     0.232625     7Ap     0.724234  
       8Ap     0.731834     9Ap     1.168925     2App    1.190370  
      10Ap     1.259838     3App    1.440341    11Ap     1.511586  
       4App    1.678965    12Ap     1.792710    13Ap     1.897562  
      14Ap     2.178334    15Ap     2.214952     5App    3.161987  
       6App    3.233675    16Ap     3.313490    17Ap     3.765436  
      18Ap     3.974715  

    Final Occupation by Irrep:
             Ap   App 
    DOCC [     4,    1 ]

  Energy converged.

  @DF-RHF Final Energy:   -75.99201710764196

   => Energetics <=

    Nuclear Repulsion Energy =              8.0634623761313193
    One-Electron Energy =                -121.0995717088352706
    Two-Electron Energy =                  37.0440922250619877
    DFT Exchange-Correlation Energy =       0.0000000000000000
    Empirical Dispersion Energy =           0.0000000000000000
    PCM Polarization Energy =               0.0000000000000000
    EFP Energy =                            0.0000000000000000
    Total Energy =                        -75.9920171076419564



Properties will be evaluated at   0.000000,   0.000000,   0.000000 Bohr

Properties computed using the SCF density matrix

  Nuclear Dipole Moment: (a.u.)
     X:    -0.0042      Y:    -1.0503      Z:     0.0000

  Electronic Dipole Moment: (a.u.)
     X:     0.0021      Y:     0.2313      Z:     0.0000

  Dipole Moment: (a.u.)
     X:    -0.0020      Y:    -0.8190      Z:     0.0000     Total:     0.8190

  Dipole Moment: (Debye)
     X:    -0.0052      Y:    -2.0817      Z:     0.0000     Total:     2.0817


*** tstop() called on sgoodlett at Mon Jun 22 10:34:08 2020
Module time:
	user time   =       0.19 seconds =       0.00 minutes
	system time =       0.00 seconds =       0.00 minutes
	total time  =          0 seconds =       0.00 minutes
Total time:
	user time   =       0.19 seconds =       0.00 minutes
	system time =       0.00 seconds =       0.00 minutes
	total time  =          0 seconds =       0.00 minutes

*** Psi4 exiting successfully. Buy a developer a beer!
