
    -----------------------------------------------------------------------
          Psi4: An Open-Source Ab Initio Electronic Structure Package
                               Psi4 1.1 release

                         Git: Rev {} zzzzzzz 


    R. M. Parrish, L. A. Burns, D. G. A. Smith, A. C. Simmonett,
    A. E. DePrince III, E. G. Hohenstein, U. Bozkaya, A. Yu. Sokolov,
    R. Di Remigio, R. M. Richard, J. F. Gonthier, A. M. James,
    H. R. McAlexander, A. Kumar, M. Saitow, X. Wang, B. P. Pritchard,
    P. Verma, H. F. Schaefer III, K. Patkowski, R. A. King, E. F. Valeev,
    F. A. Evangelista, J. M. Turney, T. D. Crawford, and C. D. Sherrill,
    J. Chem. Theory Comput. in press (2017).
    (doi: 10.1021/acs.jctc.7b00174)

    -----------------------------------------------------------------------


    Psi4 started on: Monday, 22 June 2020 10:33AM

    Process ID:   5399
    PSIDATADIR: /usr/share/psi4
    Memory:     500.0 MiB
    Threads:    1
    
  ==> Input File <==

--------------------------------------------------------------------------
molecule {
0 1
O 0.0 0.0 -0.07117626194871772
H 0.0 -0.89661914868059 0.5598094956415423
H 0.0 0.89161914868059 0.5648094956415423

}

set e_convergence 11
set basis         cc-pVDZ
energy('scf')

--------------------------------------------------------------------------

*** tstart() called on sgoodlett
*** at Mon Jun 22 10:33:28 2020

   => Loading Basis Set <=

    Name: CC-PVDZ
    Role: ORBITAL
    Keyword: BASIS
    atoms 1   entry O          line   190 file /usr/share/psi4/basis/cc-pvdz.gbs 
    atoms 2-3 entry H          line    20 file /usr/share/psi4/basis/cc-pvdz.gbs 


         ---------------------------------------------------------
                                   SCF
            by Justin Turney, Rob Parrish, and Andy Simmonett
                              RHF Reference
                        1 Threads,    500 MiB Core
         ---------------------------------------------------------

  ==> Geometry <==

    Molecular point group: cs
    Full point group: Cs

    Geometry (in Angstrom), charge = 0, multiplicity = 1:

       Center              X                  Y                   Z               Mass       
    ------------   -----------------  -----------------  -----------------  -----------------
           O         -0.000279787183     0.070896478281     0.000000000000    15.994914619560
           H          0.896339361497    -0.560089279310     0.000000000000     1.007825032070
           H         -0.891898935864    -0.565089279310     0.000000000000     1.007825032070

  Running in cs symmetry.

  Rotational constants: A =     23.46645  B =     10.46133  C =      7.23567 [cm^-1]
  Rotational constants: A = 703506.35568  B = 313622.64261  C = 216919.90173 [MHz]
  Nuclear repulsion =    8.022586147952273

  Charge       = 0
  Multiplicity = 1
  Electrons    = 10
  Nalpha       = 5
  Nbeta        = 5

  ==> Algorithm <==

  SCF Algorithm Type is DF.
  DIIS enabled.
  MOM disabled.
  Fractional occupation disabled.
  Guess Type is SAD.
  Energy threshold   = 1.00e-11
  Density threshold  = 1.00e-06
  Integral threshold = 0.00e+00

  ==> Primary Basis <==

  Basis Set: CC-PVDZ
    Blend: CC-PVDZ
    Number of shells: 12
    Number of basis function: 24
    Number of Cartesian functions: 25
    Spherical Harmonics?: true
    Max angular momentum: 2

   => Loading Basis Set <=

    Name: (CC-PVDZ AUX)
    Role: JKFIT
    Keyword: DF_BASIS_SCF
    atoms 1   entry O          line   220 file /usr/share/psi4/basis/cc-pvdz-jkfit.gbs 
    atoms 2-3 entry H          line    50 file /usr/share/psi4/basis/cc-pvdz-jkfit.gbs 

  ==> Pre-Iterations <==

   -------------------------------------------------------
    Irrep   Nso     Nmo     Nalpha   Nbeta   Ndocc  Nsocc
   -------------------------------------------------------
     A'        18      18       0       0       0       0
     A"         6       6       0       0       0       0
   -------------------------------------------------------
    Total      24      24       5       5       5       0
   -------------------------------------------------------

  ==> Integral Setup <==

  ==> DFJK: Density-Fitted J/K Matrices <==

    J tasked:                  Yes
    K tasked:                  Yes
    wK tasked:                  No
    OpenMP threads:              1
    Integrals threads:           1
    Memory (MB):               375
    Algorithm:                Core
    Integral Cache:           NONE
    Schwarz Cutoff:          1E-12
    Fitting Condition:       1E-12

   => Auxiliary Basis Set <=

  Basis Set: (CC-PVDZ AUX)
    Blend: CC-PVDZ-JKFIT
    Number of shells: 42
    Number of basis function: 116
    Number of Cartesian functions: 131
    Spherical Harmonics?: true
    Max angular momentum: 3

  Minimum eigenvalue in the overlap matrix is 4.7314040799E-02.
  Using Symmetric Orthogonalization.

  SCF Guess: Superposition of Atomic Densities via on-the-fly atomic UHF.

  ==> Iterations <==

                           Total Energy        Delta E     RMS |[F,P]|

   @DF-RHF iter   0:   -75.83010465307291   -7.58301e+01   6.69044e-02 
   @DF-RHF iter   1:   -75.92537553594548   -9.52709e-02   1.79653e-02 
   @DF-RHF iter   2:   -75.97237868791994   -4.70032e-02   1.08922e-02 DIIS
   @DF-RHF iter   3:   -75.98806008684798   -1.56814e-02   1.97479e-03 DIIS
   @DF-RHF iter   4:   -75.98956369821836   -1.50361e-03   6.01176e-04 DIIS
   @DF-RHF iter   5:   -75.98973260528064   -1.68907e-04   1.19070e-04 DIIS
   @DF-RHF iter   6:   -75.98974140238437   -8.79710e-06   3.31952e-05 DIIS
   @DF-RHF iter   7:   -75.98974209752491   -6.95141e-07   5.62274e-06 DIIS
   @DF-RHF iter   8:   -75.98974211372038   -1.61955e-08   4.71769e-07 DIIS
   @DF-RHF iter   9:   -75.98974211379493   -7.45501e-11   4.44414e-08 DIIS
   @DF-RHF iter  10:   -75.98974211379515   -2.13163e-13   5.49356e-09 DIIS

  ==> Post-Iterations <==

    Orbital Energies (a.u.)
    -----------------------

    Doubly Occupied:                                                      

       1Ap   -20.570269     2Ap    -1.275354     3Ap    -0.638846  
       4Ap    -0.532351     1App   -0.484067  

    Virtual:                                                              

       5Ap     0.157889     6Ap     0.231475     7Ap     0.721976  
       8Ap     0.727976     9Ap     1.169125     2App    1.189614  
      10Ap     1.260360     3App    1.439649    11Ap     1.513360  
       4App    1.678665    12Ap     1.788596    13Ap     1.897067  
      14Ap     2.168158    15Ap     2.206686     5App    3.158100  
       6App    3.229249    16Ap     3.306452    17Ap     3.760243  
      18Ap     3.968098  

    Final Occupation by Irrep:
             Ap   App 
    DOCC [     4,    1 ]

  Energy converged.

  @DF-RHF Final Energy:   -75.98974211379515

   => Energetics <=

    Nuclear Repulsion Energy =              8.0225861479522731
    One-Electron Energy =                -121.0228820227195285
    Two-Electron Energy =                  37.0105537609721154
    DFT Exchange-Correlation Energy =       0.0000000000000000
    Empirical Dispersion Energy =           0.0000000000000000
    PCM Polarization Energy =               0.0000000000000000
    EFP Energy =                            0.0000000000000000
    Total Energy =                        -75.9897421137951454

    Alert: EFP and PCM quantities not currently incorporated into SCF psivars.

Properties will be evaluated at   0.000000,   0.000000,   0.000000 Bohr

Properties computed using the SCF density matrix

  Nuclear Dipole Moment: (a.u.)
     X:     0.0042      Y:    -1.0545      Z:     0.0000

  Electronic Dipole Moment: (a.u.)
     X:    -0.0013      Y:     0.2349      Z:     0.0000

  Dipole Moment: (a.u.)
     X:     0.0029      Y:    -0.8196      Z:     0.0000     Total:     0.8196

  Dipole Moment: (Debye)
     X:     0.0073      Y:    -2.0832      Z:     0.0000     Total:     2.0832


*** tstop() called on sgoodlett at Mon Jun 22 10:33:29 2020
Module time:
	user time   =       0.20 seconds =       0.00 minutes
	system time =       0.00 seconds =       0.00 minutes
	total time  =          1 seconds =       0.02 minutes
Total time:
	user time   =       0.20 seconds =       0.00 minutes
	system time =       0.00 seconds =       0.00 minutes
	total time  =          1 seconds =       0.02 minutes

*** Psi4 exiting successfully. Buy a developer a beer!
