
    -----------------------------------------------------------------------
          Psi4: An Open-Source Ab Initio Electronic Structure Package
                               Psi4 1.1 release

                         Git: Rev {} zzzzzzz 


    R. M. Parrish, L. A. Burns, D. G. A. Smith, A. C. Simmonett,
    A. E. DePrince III, E. G. Hohenstein, U. Bozkaya, A. Yu. Sokolov,
    R. Di Remigio, R. M. Richard, J. F. Gonthier, A. M. James,
    H. R. McAlexander, A. Kumar, M. Saitow, X. Wang, B. P. Pritchard,
    P. Verma, H. F. Schaefer III, K. Patkowski, R. A. King, E. F. Valeev,
    F. A. Evangelista, J. M. Turney, T. D. Crawford, and C. D. Sherrill,
    J. Chem. Theory Comput. in press (2017).
    (doi: 10.1021/acs.jctc.7b00174)

    -----------------------------------------------------------------------


    Psi4 started on: Monday, 22 June 2020 10:34AM

    Process ID:   6179
    PSIDATADIR: /usr/share/psi4
    Memory:     500.0 MiB
    Threads:    1
    
  ==> Input File <==

--------------------------------------------------------------------------
molecule {
0 1
O 0.0 0.0 -0.07117626194871772
H 0.0 -0.89161914868059 0.5648094956415423
H 0.0 0.88661914868059 0.5598094956415423

}

set e_convergence 11
set basis         cc-pVDZ
energy('scf')

--------------------------------------------------------------------------

*** tstart() called on sgoodlett
*** at Mon Jun 22 10:34:08 2020

   => Loading Basis Set <=

    Name: CC-PVDZ
    Role: ORBITAL
    Keyword: BASIS
    atoms 1   entry O          line   190 file /usr/share/psi4/basis/cc-pvdz.gbs 
    atoms 2-3 entry H          line    20 file /usr/share/psi4/basis/cc-pvdz.gbs 


         ---------------------------------------------------------
                                   SCF
            by Justin Turney, Rob Parrish, and Andy Simmonett
                              RHF Reference
                        1 Threads,    500 MiB Core
         ---------------------------------------------------------

  ==> Geometry <==

    Molecular point group: cs
    Full point group: Cs

    Geometry (in Angstrom), charge = 0, multiplicity = 1:

       Center              X                  Y                   Z               Mass       
    ------------   -----------------  -----------------  -----------------  -----------------
           O         -0.000279787183     0.070896478281     0.000000000000    15.994914619560
           H          0.891339361497    -0.565089279310     0.000000000000     1.007825032070
           H         -0.886898935864    -0.560089279310     0.000000000000     1.007825032070

  Running in cs symmetry.

  Rotational constants: A =     23.46834  B =     10.57893  C =      7.29192 [cm^-1]
  Rotational constants: A = 703563.18400  B = 317148.32118  C = 218606.21882 [MHz]
  Nuclear repulsion =    8.053213123214611

  Charge       = 0
  Multiplicity = 1
  Electrons    = 10
  Nalpha       = 5
  Nbeta        = 5

  ==> Algorithm <==

  SCF Algorithm Type is DF.
  DIIS enabled.
  MOM disabled.
  Fractional occupation disabled.
  Guess Type is SAD.
  Energy threshold   = 1.00e-11
  Density threshold  = 1.00e-06
  Integral threshold = 0.00e+00

  ==> Primary Basis <==

  Basis Set: CC-PVDZ
    Blend: CC-PVDZ
    Number of shells: 12
    Number of basis function: 24
    Number of Cartesian functions: 25
    Spherical Harmonics?: true
    Max angular momentum: 2

   => Loading Basis Set <=

    Name: (CC-PVDZ AUX)
    Role: JKFIT
    Keyword: DF_BASIS_SCF
    atoms 1   entry O          line   220 file /usr/share/psi4/basis/cc-pvdz-jkfit.gbs 
    atoms 2-3 entry H          line    50 file /usr/share/psi4/basis/cc-pvdz-jkfit.gbs 

  ==> Pre-Iterations <==

   -------------------------------------------------------
    Irrep   Nso     Nmo     Nalpha   Nbeta   Ndocc  Nsocc
   -------------------------------------------------------
     A'        18      18       0       0       0       0
     A"         6       6       0       0       0       0
   -------------------------------------------------------
    Total      24      24       5       5       5       0
   -------------------------------------------------------

  ==> Integral Setup <==

  ==> DFJK: Density-Fitted J/K Matrices <==

    J tasked:                  Yes
    K tasked:                  Yes
    wK tasked:                  No
    OpenMP threads:              1
    Integrals threads:           1
    Memory (MB):               375
    Algorithm:                Core
    Integral Cache:           NONE
    Schwarz Cutoff:          1E-12
    Fitting Condition:       1E-12

   => Auxiliary Basis Set <=

  Basis Set: (CC-PVDZ AUX)
    Blend: CC-PVDZ-JKFIT
    Number of shells: 42
    Number of basis function: 116
    Number of Cartesian functions: 131
    Spherical Harmonics?: true
    Max angular momentum: 3

  Minimum eigenvalue in the overlap matrix is 4.6799933837E-02.
  Using Symmetric Orthogonalization.

  SCF Guess: Superposition of Atomic Densities via on-the-fly atomic UHF.

  ==> Iterations <==

                           Total Energy        Delta E     RMS |[F,P]|

   @DF-RHF iter   0:   -75.83728488523928   -7.58373e+01   6.74981e-02 
   @DF-RHF iter   1:   -75.92754396455463   -9.02591e-02   1.79393e-02 
   @DF-RHF iter   2:   -75.97440873608545   -4.68648e-02   1.08138e-02 DIIS
   @DF-RHF iter   3:   -75.98986213816855   -1.54534e-02   1.96821e-03 DIIS
   @DF-RHF iter   4:   -75.99134690410216   -1.48477e-03   5.97546e-04 DIIS
   @DF-RHF iter   5:   -75.99151300620129   -1.66102e-04   1.17586e-04 DIIS
   @DF-RHF iter   6:   -75.99152153315080   -8.52695e-06   3.25213e-05 DIIS
   @DF-RHF iter   7:   -75.99152219542884   -6.62278e-07   5.50846e-06 DIIS
   @DF-RHF iter   8:   -75.99152221094518   -1.55163e-08   4.66747e-07 DIIS
   @DF-RHF iter   9:   -75.99152221101839   -7.32143e-11   4.44966e-08 DIIS
   @DF-RHF iter  10:   -75.99152221101879   -3.97904e-13   6.36091e-09 DIIS

  ==> Post-Iterations <==

    Orbital Energies (a.u.)
    -----------------------

    Doubly Occupied:                                                      

       1Ap   -20.569847     2Ap    -1.276939     3Ap    -0.640300  
       4Ap    -0.533609     1App   -0.484342  

    Virtual:                                                              

       5Ap     0.158875     6Ap     0.232288     7Ap     0.722593  
       8Ap     0.732038     9Ap     1.168995     2App    1.190060  
      10Ap     1.260308     3App    1.440669    11Ap     1.510446  
       4App    1.678071    12Ap     1.792418    13Ap     1.897227  
      14Ap     2.174448    15Ap     2.213437     5App    3.161711  
       6App    3.231906    16Ap     3.313238    17Ap     3.762133  
      18Ap     3.974198  

    Final Occupation by Irrep:
             Ap   App 
    DOCC [     4,    1 ]

  Energy converged.

  @DF-RHF Final Energy:   -75.99152221101879

   => Energetics <=

    Nuclear Repulsion Energy =              8.0532131232146114
    One-Electron Energy =                -121.0793957204943467
    Two-Electron Energy =                  37.0346603862609385
    DFT Exchange-Correlation Energy =       0.0000000000000000
    Empirical Dispersion Energy =           0.0000000000000000
    PCM Polarization Energy =               0.0000000000000000
    EFP Energy =                            0.0000000000000000
    Total Energy =                        -75.9915222110187898

    Alert: EFP and PCM quantities not currently incorporated into SCF psivars.

Properties will be evaluated at   0.000000,   0.000000,   0.000000 Bohr

Properties computed using the SCF density matrix

  Nuclear Dipole Moment: (a.u.)
     X:     0.0042      Y:    -1.0545      Z:     0.0000

  Electronic Dipole Moment: (a.u.)
     X:    -0.0030      Y:     0.2337      Z:     0.0000

  Dipole Moment: (a.u.)
     X:     0.0012      Y:    -0.8208      Z:     0.0000     Total:     0.8208

  Dipole Moment: (Debye)
     X:     0.0029      Y:    -2.0862      Z:     0.0000     Total:     2.0862


*** tstop() called on sgoodlett at Mon Jun 22 10:34:08 2020
Module time:
	user time   =       0.19 seconds =       0.00 minutes
	system time =       0.00 seconds =       0.00 minutes
	total time  =          0 seconds =       0.00 minutes
Total time:
	user time   =       0.19 seconds =       0.00 minutes
	system time =       0.00 seconds =       0.00 minutes
	total time  =          0 seconds =       0.00 minutes

*** Psi4 exiting successfully. Buy a developer a beer!
