
    -----------------------------------------------------------------------
          Psi4: An Open-Source Ab Initio Electronic Structure Package
                               Psi4 1.1 release

                         Git: Rev {} zzzzzzz 


    R. M. Parrish, L. A. Burns, D. G. A. Smith, A. C. Simmonett,
    A. E. DePrince III, E. G. Hohenstein, U. Bozkaya, A. Yu. Sokolov,
    R. Di Remigio, R. M. Richard, J. F. Gonthier, A. M. James,
    H. R. McAlexander, A. Kumar, M. Saitow, X. Wang, B. P. Pritchard,
    P. Verma, H. F. Schaefer III, K. Patkowski, R. A. King, E. F. Valeev,
    F. A. Evangelista, J. M. Turney, T. D. Crawford, and C. D. Sherrill,
    J. Chem. Theory Comput. in press (2017).
    (doi: 10.1021/acs.jctc.7b00174)

    -----------------------------------------------------------------------


    Psi4 started on: Monday, 22 June 2020 10:33AM

    Process ID:   5672
    PSIDATADIR: /usr/share/psi4
    Memory:     500.0 MiB
    Threads:    1
    
  ==> Input File <==

--------------------------------------------------------------------------
molecule {
0 1
O 0.0 0.005 -0.07117626194871772
H 0.0 -0.89161914868059 0.5698094956415423
H 0.0 0.89161914868059 0.5648094956415423

}

set e_convergence 11
set basis         cc-pVDZ
energy('scf')

--------------------------------------------------------------------------

*** tstart() called on sgoodlett
*** at Mon Jun 22 10:33:42 2020

   => Loading Basis Set <=

    Name: CC-PVDZ
    Role: ORBITAL
    Keyword: BASIS
    atoms 1   entry O          line   190 file /usr/share/psi4/basis/cc-pvdz.gbs 
    atoms 2-3 entry H          line    20 file /usr/share/psi4/basis/cc-pvdz.gbs 


         ---------------------------------------------------------
                                   SCF
            by Justin Turney, Rob Parrish, and Andy Simmonett
                              RHF Reference
                        1 Threads,    500 MiB Core
         ---------------------------------------------------------

  ==> Geometry <==

    Molecular point group: cs
    Full point group: Cs

    Geometry (in Angstrom), charge = 0, multiplicity = 1:

       Center              X                  Y                   Z               Mass       
    ------------   -----------------  -----------------  -----------------  -----------------
           O         -0.000559574366     0.071456052647     0.000000000000    15.994914619560
           H          0.896059574314    -0.569529704943     0.000000000000     1.007825032070
           H         -0.887178723047    -0.564529704943     0.000000000000     1.007825032070

  Running in cs symmetry.

  Rotational constants: A =     23.10404  B =     10.51909  C =      7.22816 [cm^-1]
  Rotational constants: A = 692641.62586  B = 315354.33401  C = 216694.85526 [MHz]
  Nuclear repulsion =    8.017554375870722

  Charge       = 0
  Multiplicity = 1
  Electrons    = 10
  Nalpha       = 5
  Nbeta        = 5

  ==> Algorithm <==

  SCF Algorithm Type is DF.
  DIIS enabled.
  MOM disabled.
  Fractional occupation disabled.
  Guess Type is SAD.
  Energy threshold   = 1.00e-11
  Density threshold  = 1.00e-06
  Integral threshold = 0.00e+00

  ==> Primary Basis <==

  Basis Set: CC-PVDZ
    Blend: CC-PVDZ
    Number of shells: 12
    Number of basis function: 24
    Number of Cartesian functions: 25
    Spherical Harmonics?: true
    Max angular momentum: 2

   => Loading Basis Set <=

    Name: (CC-PVDZ AUX)
    Role: JKFIT
    Keyword: DF_BASIS_SCF
    atoms 1   entry O          line   220 file /usr/share/psi4/basis/cc-pvdz-jkfit.gbs 
    atoms 2-3 entry H          line    50 file /usr/share/psi4/basis/cc-pvdz-jkfit.gbs 

  ==> Pre-Iterations <==

   -------------------------------------------------------
    Irrep   Nso     Nmo     Nalpha   Nbeta   Ndocc  Nsocc
   -------------------------------------------------------
     A'        18      18       0       0       0       0
     A"         6       6       0       0       0       0
   -------------------------------------------------------
    Total      24      24       5       5       5       0
   -------------------------------------------------------

  ==> Integral Setup <==

  ==> DFJK: Density-Fitted J/K Matrices <==

    J tasked:                  Yes
    K tasked:                  Yes
    wK tasked:                  No
    OpenMP threads:              1
    Integrals threads:           1
    Memory (MB):               375
    Algorithm:                Core
    Integral Cache:           NONE
    Schwarz Cutoff:          1E-12
    Fitting Condition:       1E-12

   => Auxiliary Basis Set <=

  Basis Set: (CC-PVDZ AUX)
    Blend: CC-PVDZ-JKFIT
    Number of shells: 42
    Number of basis function: 116
    Number of Cartesian functions: 131
    Spherical Harmonics?: true
    Max angular momentum: 3

  Minimum eigenvalue in the overlap matrix is 4.7209467611E-02.
  Using Symmetric Orthogonalization.

  SCF Guess: Superposition of Atomic Densities via on-the-fly atomic UHF.

  ==> Iterations <==

                           Total Energy        Delta E     RMS |[F,P]|

   @DF-RHF iter   0:   -75.66894408173791   -7.56689e+01   6.55671e-02 
   @DF-RHF iter   1:   -75.97088662242456   -3.01943e-01   1.13097e-02 
   @DF-RHF iter   2:   -75.98471768387130   -1.38311e-02   5.95165e-03 DIIS
   @DF-RHF iter   3:   -75.98942526778328   -4.70758e-03   9.39276e-04 DIIS
   @DF-RHF iter   4:   -75.98959713203556   -1.71864e-04   2.01935e-04 DIIS
   @DF-RHF iter   5:   -75.98961710916666   -1.99771e-05   6.01295e-05 DIIS
   @DF-RHF iter   6:   -75.98961946975393   -2.36059e-06   1.14351e-05 DIIS
   @DF-RHF iter   7:   -75.98961955332877   -8.35748e-08   1.33852e-06 DIIS
   @DF-RHF iter   8:   -75.98961955419276   -8.63992e-10   2.32520e-07 DIIS
   @DF-RHF iter   9:   -75.98961955421427   -2.15152e-11   3.15255e-08 DIIS
   @DF-RHF iter  10:   -75.98961955421463   -3.55271e-13   3.95596e-09 DIIS

  ==> Post-Iterations <==

    Orbital Energies (a.u.)
    -----------------------

    Doubly Occupied:                                                      

       1Ap   -20.570833     2Ap    -1.275485     3Ap    -0.637750  
       4Ap    -0.533275     1App   -0.484335  

    Virtual:                                                              

       5Ap     0.157764     6Ap     0.231197     7Ap     0.718881  
       8Ap     0.730583     9Ap     1.169194     2App    1.189205  
      10Ap     1.261297     3App    1.440821    11Ap     1.509645  
       4App    1.676610    12Ap     1.789899    13Ap     1.896414  
      14Ap     2.163302    15Ap     2.207461     5App    3.159249  
       6App    3.227159    16Ap     3.309286    17Ap     3.754611  
      18Ap     3.970098  

    Final Occupation by Irrep:
             Ap   App 
    DOCC [     4,    1 ]

  Energy converged.

  @DF-RHF Final Energy:   -75.98961955421463

   => Energetics <=

    Nuclear Repulsion Energy =              8.0175543758707217
    One-Electron Energy =                -121.0109913797705303
    Two-Electron Energy =                  37.0038174496851866
    DFT Exchange-Correlation Energy =       0.0000000000000000
    Empirical Dispersion Energy =           0.0000000000000000
    PCM Polarization Energy =               0.0000000000000000
    EFP Energy =                            0.0000000000000000
    Total Energy =                        -75.9896195542146273

    Alert: EFP and PCM quantities not currently incorporated into SCF psivars.

Properties will be evaluated at   0.000000,   0.000000,   0.000000 Bohr

Properties computed using the SCF density matrix

  Nuclear Dipole Moment: (a.u.)
     X:     0.0083      Y:    -1.0628      Z:     0.0000

  Electronic Dipole Moment: (a.u.)
     X:    -0.0052      Y:     0.2390      Z:     0.0000

  Dipole Moment: (a.u.)
     X:     0.0031      Y:    -0.8238      Z:     0.0000     Total:     0.8238

  Dipole Moment: (Debye)
     X:     0.0079      Y:    -2.0938      Z:     0.0000     Total:     2.0938


*** tstop() called on sgoodlett at Mon Jun 22 10:33:43 2020
Module time:
	user time   =       0.19 seconds =       0.00 minutes
	system time =       0.00 seconds =       0.00 minutes
	total time  =          1 seconds =       0.02 minutes
Total time:
	user time   =       0.19 seconds =       0.00 minutes
	system time =       0.00 seconds =       0.00 minutes
	total time  =          1 seconds =       0.02 minutes

*** Psi4 exiting successfully. Buy a developer a beer!
