
    -----------------------------------------------------------------------
          Psi4: An Open-Source Ab Initio Electronic Structure Package
                               Psi4 1.1 release

                         Git: Rev {} zzzzzzz 


    R. M. Parrish, L. A. Burns, D. G. A. Smith, A. C. Simmonett,
    A. E. DePrince III, E. G. Hohenstein, U. Bozkaya, A. Yu. Sokolov,
    R. Di Remigio, R. M. Richard, J. F. Gonthier, A. M. James,
    H. R. McAlexander, A. Kumar, M. Saitow, X. Wang, B. P. Pritchard,
    P. Verma, H. F. Schaefer III, K. Patkowski, R. A. King, E. F. Valeev,
    F. A. Evangelista, J. M. Turney, T. D. Crawford, and C. D. Sherrill,
    J. Chem. Theory Comput. in press (2017).
    (doi: 10.1021/acs.jctc.7b00174)

    -----------------------------------------------------------------------


    Psi4 started on: Monday, 22 June 2020 10:34AM

    Process ID:   6337
    PSIDATADIR: /usr/share/psi4
    Memory:     500.0 MiB
    Threads:    1
    
  ==> Input File <==

--------------------------------------------------------------------------
molecule {
0 1
O 0.0 -0.005 -0.07617626194871772
H 0.0 -0.89161914868059 0.5648094956415423
H 0.0 0.89161914868059 0.5648094956415423

}

set e_convergence 11
set basis         cc-pVDZ
energy('scf')

--------------------------------------------------------------------------

*** tstart() called on sgoodlett
*** at Mon Jun 22 10:34:16 2020

   => Loading Basis Set <=

    Name: CC-PVDZ
    Role: ORBITAL
    Keyword: BASIS
    atoms 1   entry O          line   190 file /usr/share/psi4/basis/cc-pvdz.gbs 
    atoms 2-3 entry H          line    20 file /usr/share/psi4/basis/cc-pvdz.gbs 


         ---------------------------------------------------------
                                   SCF
            by Justin Turney, Rob Parrish, and Andy Simmonett
                              RHF Reference
                        1 Threads,    500 MiB Core
         ---------------------------------------------------------

  ==> Geometry <==

    Molecular point group: cs
    Full point group: Cs

    Geometry (in Angstrom), charge = 0, multiplicity = 1:

       Center              X                  Y                   Z               Mass       
    ------------   -----------------  -----------------  -----------------  -----------------
           O          0.000559574366     0.071735839830     0.000000000000    15.994914619560
           H          0.887178723047    -0.569249917760     0.000000000000     1.007825032070
           H         -0.896059574314    -0.569249917760     0.000000000000     1.007825032070

  Running in cs symmetry.

  Rotational constants: A =     22.92200  B =     10.51962  C =      7.21050 [cm^-1]
  Rotational constants: A = 687184.12786  B = 315370.35613  C = 216165.31230 [MHz]
  Nuclear repulsion =    8.007193707772215

  Charge       = 0
  Multiplicity = 1
  Electrons    = 10
  Nalpha       = 5
  Nbeta        = 5

  ==> Algorithm <==

  SCF Algorithm Type is DF.
  DIIS enabled.
  MOM disabled.
  Fractional occupation disabled.
  Guess Type is SAD.
  Energy threshold   = 1.00e-11
  Density threshold  = 1.00e-06
  Integral threshold = 0.00e+00

  ==> Primary Basis <==

  Basis Set: CC-PVDZ
    Blend: CC-PVDZ
    Number of shells: 12
    Number of basis function: 24
    Number of Cartesian functions: 25
    Spherical Harmonics?: true
    Max angular momentum: 2

   => Loading Basis Set <=

    Name: (CC-PVDZ AUX)
    Role: JKFIT
    Keyword: DF_BASIS_SCF
    atoms 1   entry O          line   220 file /usr/share/psi4/basis/cc-pvdz-jkfit.gbs 
    atoms 2-3 entry H          line    50 file /usr/share/psi4/basis/cc-pvdz-jkfit.gbs 

  ==> Pre-Iterations <==

   -------------------------------------------------------
    Irrep   Nso     Nmo     Nalpha   Nbeta   Ndocc  Nsocc
   -------------------------------------------------------
     A'        18      18       0       0       0       0
     A"         6       6       0       0       0       0
   -------------------------------------------------------
    Total      24      24       5       5       5       0
   -------------------------------------------------------

  ==> Integral Setup <==

  ==> DFJK: Density-Fitted J/K Matrices <==

    J tasked:                  Yes
    K tasked:                  Yes
    wK tasked:                  No
    OpenMP threads:              1
    Integrals threads:           1
    Memory (MB):               375
    Algorithm:                Core
    Integral Cache:           NONE
    Schwarz Cutoff:          1E-12
    Fitting Condition:       1E-12

   => Auxiliary Basis Set <=

  Basis Set: (CC-PVDZ AUX)
    Blend: CC-PVDZ-JKFIT
    Number of shells: 42
    Number of basis function: 116
    Number of Cartesian functions: 131
    Spherical Harmonics?: true
    Max angular momentum: 3

  Minimum eigenvalue in the overlap matrix is 4.7293995642E-02.
  Using Symmetric Orthogonalization.

  SCF Guess: Superposition of Atomic Densities via on-the-fly atomic UHF.

  ==> Iterations <==

                           Total Energy        Delta E     RMS |[F,P]|

   @DF-RHF iter   0:   -75.74817577132728   -7.57482e+01   6.62499e-02 
   @DF-RHF iter   1:   -75.94503751107919   -1.96862e-01   1.51631e-02 
   @DF-RHF iter   2:   -75.97692161628306   -3.18841e-02   9.09955e-03 DIIS
   @DF-RHF iter   3:   -75.98788044184727   -1.09588e-02   1.51608e-03 DIIS
   @DF-RHF iter   4:   -75.98895279315636   -1.07235e-03   5.49588e-04 DIIS
   @DF-RHF iter   5:   -75.98911045106810   -1.57658e-04   1.17620e-04 DIIS
   @DF-RHF iter   6:   -75.98911966672283   -9.21565e-06   2.32796e-05 DIIS
   @DF-RHF iter   7:   -75.98912000402478   -3.37302e-07   3.71216e-06 DIIS
   @DF-RHF iter   8:   -75.98912000989264   -5.86786e-09   4.82052e-07 DIIS
   @DF-RHF iter   9:   -75.98912000995938   -6.67342e-11   3.50450e-08 DIIS
   @DF-RHF iter  10:   -75.98912000995998   -5.96856e-13   5.62187e-09 DIIS

  ==> Post-Iterations <==

    Orbital Energies (a.u.)
    -----------------------

    Doubly Occupied:                                                      

       1Ap   -20.571224     2Ap    -1.275135     3Ap    -0.636822  
       4Ap    -0.533430     1App   -0.484398  

    Virtual:                                                              

       5Ap     0.157475     6Ap     0.230837     7Ap     0.718030  
       8Ap     0.729972     9Ap     1.169303     2App    1.188897  
      10Ap     1.261728     3App    1.441128    11Ap     1.508501  
       4App    1.675740    12Ap     1.789625    13Ap     1.896120  
      14Ap     2.160778    15Ap     2.204503     5App    3.159132  
       6App    3.225186    16Ap     3.308910    17Ap     3.751549  
      18Ap     3.969348  

    Final Occupation by Irrep:
             Ap   App 
    DOCC [     4,    1 ]

  Energy converged.

  @DF-RHF Final Energy:   -75.98912000995998

   => Energetics <=

    Nuclear Repulsion Energy =              8.0071937077722151
    One-Electron Energy =                -120.9906081956964954
    Two-Electron Energy =                  36.9942944779643099
    DFT Exchange-Correlation Energy =       0.0000000000000000
    Empirical Dispersion Energy =           0.0000000000000000
    PCM Polarization Energy =               0.0000000000000000
    EFP Energy =                            0.0000000000000000
    Total Energy =                        -75.9891200099599757

    Alert: EFP and PCM quantities not currently incorporated into SCF psivars.

Properties will be evaluated at   0.000000,   0.000000,   0.000000 Bohr

Properties computed using the SCF density matrix

  Nuclear Dipole Moment: (a.u.)
     X:    -0.0083      Y:    -1.0670      Z:     0.0000

  Electronic Dipole Moment: (a.u.)
     X:     0.0044      Y:     0.2414      Z:     0.0000

  Dipole Moment: (a.u.)
     X:    -0.0040      Y:    -0.8255      Z:     0.0000     Total:     0.8255

  Dipole Moment: (Debye)
     X:    -0.0101      Y:    -2.0983      Z:     0.0000     Total:     2.0983


*** tstop() called on sgoodlett at Mon Jun 22 10:34:16 2020
Module time:
	user time   =       0.18 seconds =       0.00 minutes
	system time =       0.01 seconds =       0.00 minutes
	total time  =          0 seconds =       0.00 minutes
Total time:
	user time   =       0.18 seconds =       0.00 minutes
	system time =       0.01 seconds =       0.00 minutes
	total time  =          0 seconds =       0.00 minutes

*** Psi4 exiting successfully. Buy a developer a beer!
