
    -----------------------------------------------------------------------
          Psi4: An Open-Source Ab Initio Electronic Structure Package
                               Psi4 1.1 release

                         Git: Rev {} zzzzzzz 


    R. M. Parrish, L. A. Burns, D. G. A. Smith, A. C. Simmonett,
    A. E. DePrince III, E. G. Hohenstein, U. Bozkaya, A. Yu. Sokolov,
    R. Di Remigio, R. M. Richard, J. F. Gonthier, A. M. James,
    H. R. McAlexander, A. Kumar, M. Saitow, X. Wang, B. P. Pritchard,
    P. Verma, H. F. Schaefer III, K. Patkowski, R. A. King, E. F. Valeev,
    F. A. Evangelista, J. M. Turney, T. D. Crawford, and C. D. Sherrill,
    J. Chem. Theory Comput. in press (2017).
    (doi: 10.1021/acs.jctc.7b00174)

    -----------------------------------------------------------------------


    Psi4 started on: Monday, 22 June 2020 10:33AM

    Process ID:   5906
    PSIDATADIR: /usr/share/psi4
    Memory:     500.0 MiB
    Threads:    1
    
  ==> Input File <==

--------------------------------------------------------------------------
molecule {
0 1
O 0.0 0.005 -0.07117626194871772
H 0.0 -0.89161914868059 0.5648094956415423
H 0.0 0.89161914868059 0.5698094956415423

}

set e_convergence 11
set basis         cc-pVDZ
energy('scf')

--------------------------------------------------------------------------

*** tstart() called on sgoodlett
*** at Mon Jun 22 10:33:54 2020

   => Loading Basis Set <=

    Name: CC-PVDZ
    Role: ORBITAL
    Keyword: BASIS
    atoms 1   entry O          line   190 file /usr/share/psi4/basis/cc-pvdz.gbs 
    atoms 2-3 entry H          line    20 file /usr/share/psi4/basis/cc-pvdz.gbs 


         ---------------------------------------------------------
                                   SCF
            by Justin Turney, Rob Parrish, and Andy Simmonett
                              RHF Reference
                        1 Threads,    500 MiB Core
         ---------------------------------------------------------

  ==> Geometry <==

    Molecular point group: cs
    Full point group: Cs

    Geometry (in Angstrom), charge = 0, multiplicity = 1:

       Center              X                  Y                   Z               Mass       
    ------------   -----------------  -----------------  -----------------  -----------------
           O         -0.000559574366     0.071456052647     0.000000000000    15.994914619560
           H          0.896059574314    -0.564529704943     0.000000000000     1.007825032070
           H         -0.887178723047    -0.569529704943     0.000000000000     1.007825032070

  Running in cs symmetry.

  Rotational constants: A =     23.10031  B =     10.51986  C =      7.22816 [cm^-1]
  Rotational constants: A = 692529.94159  B = 315377.49059  C = 216694.85526 [MHz]
  Nuclear repulsion =    8.017326458717049

  Charge       = 0
  Multiplicity = 1
  Electrons    = 10
  Nalpha       = 5
  Nbeta        = 5

  ==> Algorithm <==

  SCF Algorithm Type is DF.
  DIIS enabled.
  MOM disabled.
  Fractional occupation disabled.
  Guess Type is SAD.
  Energy threshold   = 1.00e-11
  Density threshold  = 1.00e-06
  Integral threshold = 0.00e+00

  ==> Primary Basis <==

  Basis Set: CC-PVDZ
    Blend: CC-PVDZ
    Number of shells: 12
    Number of basis function: 24
    Number of Cartesian functions: 25
    Spherical Harmonics?: true
    Max angular momentum: 2

   => Loading Basis Set <=

    Name: (CC-PVDZ AUX)
    Role: JKFIT
    Keyword: DF_BASIS_SCF
    atoms 1   entry O          line   220 file /usr/share/psi4/basis/cc-pvdz-jkfit.gbs 
    atoms 2-3 entry H          line    50 file /usr/share/psi4/basis/cc-pvdz-jkfit.gbs 

  ==> Pre-Iterations <==

   -------------------------------------------------------
    Irrep   Nso     Nmo     Nalpha   Nbeta   Ndocc  Nsocc
   -------------------------------------------------------
     A'        18      18       0       0       0       0
     A"         6       6       0       0       0       0
   -------------------------------------------------------
    Total      24      24       5       5       5       0
   -------------------------------------------------------

  ==> Integral Setup <==

  ==> DFJK: Density-Fitted J/K Matrices <==

    J tasked:                  Yes
    K tasked:                  Yes
    wK tasked:                  No
    OpenMP threads:              1
    Integrals threads:           1
    Memory (MB):               375
    Algorithm:                Core
    Integral Cache:           NONE
    Schwarz Cutoff:          1E-12
    Fitting Condition:       1E-12

   => Auxiliary Basis Set <=

  Basis Set: (CC-PVDZ AUX)
    Blend: CC-PVDZ-JKFIT
    Number of shells: 42
    Number of basis function: 116
    Number of Cartesian functions: 131
    Spherical Harmonics?: true
    Max angular momentum: 3

  Minimum eigenvalue in the overlap matrix is 4.7216190489E-02.
  Using Symmetric Orthogonalization.

  SCF Guess: Superposition of Atomic Densities via on-the-fly atomic UHF.

  ==> Iterations <==

                           Total Energy        Delta E     RMS |[F,P]|

   @DF-RHF iter   0:   -75.66890502576251   -7.56689e+01   6.55616e-02 
   @DF-RHF iter   1:   -75.97090451464817   -3.01999e-01   1.13089e-02 
   @DF-RHF iter   2:   -75.98473298321053   -1.38285e-02   5.95078e-03 DIIS
   @DF-RHF iter   3:   -75.98943928329689   -4.70630e-03   9.39302e-04 DIIS
   @DF-RHF iter   4:   -75.98961109545883   -1.71812e-04   2.01889e-04 DIIS
   @DF-RHF iter   5:   -75.98963106477363   -1.99693e-05   6.01367e-05 DIIS
   @DF-RHF iter   6:   -75.98963342618491   -2.36141e-06   1.14358e-05 DIIS
   @DF-RHF iter   7:   -75.98963350977306   -8.35881e-08   1.33514e-06 DIIS
   @DF-RHF iter   8:   -75.98963351063053   -8.57469e-10   2.30929e-07 DIIS
   @DF-RHF iter   9:   -75.98963351065152   -2.09894e-11   3.09081e-08 DIIS
   @DF-RHF iter  10:   -75.98963351065197   -4.54747e-13   3.21663e-09 DIIS

  ==> Post-Iterations <==

    Orbital Energies (a.u.)
    -----------------------

    Doubly Occupied:                                                      

       1Ap   -20.570838     2Ap    -1.275465     3Ap    -0.637731  
       4Ap    -0.533284     1App   -0.484333  

    Virtual:                                                              

       5Ap     0.157783     6Ap     0.231184     7Ap     0.719604  
       8Ap     0.729800     9Ap     1.169227     2App    1.189214  
      10Ap     1.261250     3App    1.440797    11Ap     1.509636  
       4App    1.676611    12Ap     1.789922    13Ap     1.896500  
      14Ap     2.164599    15Ap     2.205932     5App    3.159451  
       6App    3.226904    16Ap     3.309243    17Ap     3.754758  
      18Ap     3.969927  

    Final Occupation by Irrep:
             Ap   App 
    DOCC [     4,    1 ]

  Energy converged.

  @DF-RHF Final Energy:   -75.98963351065197

   => Energetics <=

    Nuclear Repulsion Energy =              8.0173264587170490
    One-Electron Energy =                -121.0106212121587959
    Two-Electron Energy =                  37.0036612427897822
    DFT Exchange-Correlation Energy =       0.0000000000000000
    Empirical Dispersion Energy =           0.0000000000000000
    PCM Polarization Energy =               0.0000000000000000
    EFP Energy =                            0.0000000000000000
    Total Energy =                        -75.9896335106519700



Properties will be evaluated at   0.000000,   0.000000,   0.000000 Bohr

Properties computed using the SCF density matrix

  Nuclear Dipole Moment: (a.u.)
     X:     0.0083      Y:    -1.0628      Z:     0.0000

  Electronic Dipole Moment: (a.u.)
     X:    -0.0035      Y:     0.2390      Z:     0.0000

  Dipole Moment: (a.u.)
     X:     0.0049      Y:    -0.8238      Z:     0.0000     Total:     0.8238

  Dipole Moment: (Debye)
     X:     0.0124      Y:    -2.0938      Z:     0.0000     Total:     2.0938


*** tstop() called on sgoodlett at Mon Jun 22 10:33:54 2020
Module time:
	user time   =       0.19 seconds =       0.00 minutes
	system time =       0.00 seconds =       0.00 minutes
	total time  =          0 seconds =       0.00 minutes
Total time:
	user time   =       0.19 seconds =       0.00 minutes
	system time =       0.00 seconds =       0.00 minutes
	total time  =          0 seconds =       0.00 minutes

*** Psi4 exiting successfully. Buy a developer a beer!
