
    -----------------------------------------------------------------------
          Psi4: An Open-Source Ab Initio Electronic Structure Package
                               Psi4 1.1 release

                         Git: Rev {} zzzzzzz 


    R. M. Parrish, L. A. Burns, D. G. A. Smith, A. C. Simmonett,
    A. E. DePrince III, E. G. Hohenstein, U. Bozkaya, A. Yu. Sokolov,
    R. Di Remigio, R. M. Richard, J. F. Gonthier, A. M. James,
    H. R. McAlexander, A. Kumar, M. Saitow, X. Wang, B. P. Pritchard,
    P. Verma, H. F. Schaefer III, K. Patkowski, R. A. King, E. F. Valeev,
    F. A. Evangelista, J. M. Turney, T. D. Crawford, and C. D. Sherrill,
    J. Chem. Theory Comput. in press (2017).
    (doi: 10.1021/acs.jctc.7b00174)

    -----------------------------------------------------------------------


    Psi4 started on: Monday, 22 June 2020 10:34AM

    Process ID:   6140
    PSIDATADIR: /usr/share/psi4
    Memory:     500.0 MiB
    Threads:    1
    
  ==> Input File <==

--------------------------------------------------------------------------
molecule {
0 1
O 0.0 0.0 -0.07117626194871772
H 0.0 -0.89661914868059 0.5648094956415423
H 0.0 0.89161914868059 0.5598094956415423

}

set e_convergence 11
set basis         cc-pVDZ
energy('scf')

--------------------------------------------------------------------------

*** tstart() called on sgoodlett
*** at Mon Jun 22 10:34:06 2020

   => Loading Basis Set <=

    Name: CC-PVDZ
    Role: ORBITAL
    Keyword: BASIS
    atoms 1   entry O          line   190 file /usr/share/psi4/basis/cc-pvdz.gbs 
    atoms 2-3 entry H          line    20 file /usr/share/psi4/basis/cc-pvdz.gbs 


         ---------------------------------------------------------
                                   SCF
            by Justin Turney, Rob Parrish, and Andy Simmonett
                              RHF Reference
                        1 Threads,    500 MiB Core
         ---------------------------------------------------------

  ==> Geometry <==

    Molecular point group: cs
    Full point group: Cs

    Geometry (in Angstrom), charge = 0, multiplicity = 1:

       Center              X                  Y                   Z               Mass       
    ------------   -----------------  -----------------  -----------------  -----------------
           O         -0.000279787183     0.070896478281     0.000000000000    15.994914619560
           H          0.896339361497    -0.565089279310     0.000000000000     1.007825032070
           H         -0.891898935864    -0.560089279310     0.000000000000     1.007825032070

  Running in cs symmetry.

  Rotational constants: A =     23.46831  B =     10.46095  C =      7.23567 [cm^-1]
  Rotational constants: A = 703562.38378  B = 313611.50903  C = 216919.90173 [MHz]
  Nuclear repulsion =    8.022699976732765

  Charge       = 0
  Multiplicity = 1
  Electrons    = 10
  Nalpha       = 5
  Nbeta        = 5

  ==> Algorithm <==

  SCF Algorithm Type is DF.
  DIIS enabled.
  MOM disabled.
  Fractional occupation disabled.
  Guess Type is SAD.
  Energy threshold   = 1.00e-11
  Density threshold  = 1.00e-06
  Integral threshold = 0.00e+00

  ==> Primary Basis <==

  Basis Set: CC-PVDZ
    Blend: CC-PVDZ
    Number of shells: 12
    Number of basis function: 24
    Number of Cartesian functions: 25
    Spherical Harmonics?: true
    Max angular momentum: 2

   => Loading Basis Set <=

    Name: (CC-PVDZ AUX)
    Role: JKFIT
    Keyword: DF_BASIS_SCF
    atoms 1   entry O          line   220 file /usr/share/psi4/basis/cc-pvdz-jkfit.gbs 
    atoms 2-3 entry H          line    50 file /usr/share/psi4/basis/cc-pvdz-jkfit.gbs 

  ==> Pre-Iterations <==

   -------------------------------------------------------
    Irrep   Nso     Nmo     Nalpha   Nbeta   Ndocc  Nsocc
   -------------------------------------------------------
     A'        18      18       0       0       0       0
     A"         6       6       0       0       0       0
   -------------------------------------------------------
    Total      24      24       5       5       5       0
   -------------------------------------------------------

  ==> Integral Setup <==

  ==> DFJK: Density-Fitted J/K Matrices <==

    J tasked:                  Yes
    K tasked:                  Yes
    wK tasked:                  No
    OpenMP threads:              1
    Integrals threads:           1
    Memory (MB):               375
    Algorithm:                Core
    Integral Cache:           NONE
    Schwarz Cutoff:          1E-12
    Fitting Condition:       1E-12

   => Auxiliary Basis Set <=

  Basis Set: (CC-PVDZ AUX)
    Blend: CC-PVDZ-JKFIT
    Number of shells: 42
    Number of basis function: 116
    Number of Cartesian functions: 131
    Spherical Harmonics?: true
    Max angular momentum: 3

  Minimum eigenvalue in the overlap matrix is 4.7310645844E-02.
  Using Symmetric Orthogonalization.

  SCF Guess: Superposition of Atomic Densities via on-the-fly atomic UHF.

  ==> Iterations <==

                           Total Energy        Delta E     RMS |[F,P]|

   @DF-RHF iter   0:   -75.83012971523812   -7.58301e+01   6.69073e-02 
   @DF-RHF iter   1:   -75.92536460288704   -9.52349e-02   1.79657e-02 
   @DF-RHF iter   2:   -75.97237016524133   -4.70056e-02   1.08927e-02 DIIS
   @DF-RHF iter   3:   -75.98805292698037   -1.56828e-02   1.97480e-03 DIIS
   @DF-RHF iter   4:   -75.98955665720533   -1.50373e-03   6.01186e-04 DIIS
   @DF-RHF iter   5:   -75.98972556708461   -1.68910e-04   1.19068e-04 DIIS
   @DF-RHF iter   6:   -75.98973436385245   -8.79677e-06   3.31944e-05 DIIS
   @DF-RHF iter   7:   -75.98973505897281   -6.95120e-07   5.62372e-06 DIIS
   @DF-RHF iter   8:   -75.98973507517633   -1.62035e-08   4.72654e-07 DIIS
   @DF-RHF iter   9:   -75.98973507525143   -7.51044e-11   4.52697e-08 DIIS
   @DF-RHF iter  10:   -75.98973507525190   -4.68958e-13   6.52094e-09 DIIS

  ==> Post-Iterations <==

    Orbital Energies (a.u.)
    -----------------------

    Doubly Occupied:                                                      

       1Ap   -20.570266     2Ap    -1.275364     3Ap    -0.638856  
       4Ap    -0.532346     1App   -0.484069  

    Virtual:                                                              

       5Ap     0.157880     6Ap     0.231481     7Ap     0.721366  
       8Ap     0.728616     9Ap     1.169108     2App    1.189609  
      10Ap     1.260384     3App    1.439661    11Ap     1.513364  
       4App    1.678665    12Ap     1.788584    13Ap     1.897025  
      14Ap     2.167450    15Ap     2.207510     5App    3.158005  
       6App    3.229371    16Ap     3.306473    17Ap     3.760168  
      18Ap     3.968185  

    Final Occupation by Irrep:
             Ap   App 
    DOCC [     4,    1 ]

  Energy converged.

  @DF-RHF Final Energy:   -75.98973507525190

   => Energetics <=

    Nuclear Repulsion Energy =              8.0226999767327651
    One-Electron Energy =                -121.0230669200036147
    Two-Electron Energy =                  37.0106318680189545
    DFT Exchange-Correlation Energy =       0.0000000000000000
    Empirical Dispersion Energy =           0.0000000000000000
    PCM Polarization Energy =               0.0000000000000000
    EFP Energy =                            0.0000000000000000
    Total Energy =                        -75.9897350752519003

    Alert: EFP and PCM quantities not currently incorporated into SCF psivars.

Properties will be evaluated at   0.000000,   0.000000,   0.000000 Bohr

Properties computed using the SCF density matrix

  Nuclear Dipole Moment: (a.u.)
     X:     0.0042      Y:    -1.0545      Z:     0.0000

  Electronic Dipole Moment: (a.u.)
     X:    -0.0030      Y:     0.2349      Z:     0.0000

  Dipole Moment: (a.u.)
     X:     0.0011      Y:    -0.8196      Z:     0.0000     Total:     0.8196

  Dipole Moment: (Debye)
     X:     0.0029      Y:    -2.0832      Z:     0.0000     Total:     2.0832


*** tstop() called on sgoodlett at Mon Jun 22 10:34:06 2020
Module time:
	user time   =       0.19 seconds =       0.00 minutes
	system time =       0.00 seconds =       0.00 minutes
	total time  =          0 seconds =       0.00 minutes
Total time:
	user time   =       0.19 seconds =       0.00 minutes
	system time =       0.00 seconds =       0.00 minutes
	total time  =          0 seconds =       0.00 minutes

*** Psi4 exiting successfully. Buy a developer a beer!
