
    -----------------------------------------------------------------------
          Psi4: An Open-Source Ab Initio Electronic Structure Package
                               Psi4 1.1 release

                         Git: Rev {} zzzzzzz 


    R. M. Parrish, L. A. Burns, D. G. A. Smith, A. C. Simmonett,
    A. E. DePrince III, E. G. Hohenstein, U. Bozkaya, A. Yu. Sokolov,
    R. Di Remigio, R. M. Richard, J. F. Gonthier, A. M. James,
    H. R. McAlexander, A. Kumar, M. Saitow, X. Wang, B. P. Pritchard,
    P. Verma, H. F. Schaefer III, K. Patkowski, R. A. King, E. F. Valeev,
    F. A. Evangelista, J. M. Turney, T. D. Crawford, and C. D. Sherrill,
    J. Chem. Theory Comput. in press (2017).
    (doi: 10.1021/acs.jctc.7b00174)

    -----------------------------------------------------------------------


    Psi4 started on: Monday, 22 June 2020 10:34AM

    Process ID:   6010
    PSIDATADIR: /usr/share/psi4
    Memory:     500.0 MiB
    Threads:    1
    
  ==> Input File <==

--------------------------------------------------------------------------
molecule {
0 1
O 0.0 0.0 -0.07117626194871772
H 0.0 -0.88661914868059 0.5648094956415423
H 0.0 0.89161914868059 0.5648094956415423

}

set e_convergence 11
set basis         cc-pVDZ
energy('scf')

--------------------------------------------------------------------------

*** tstart() called on sgoodlett
*** at Mon Jun 22 10:34:00 2020

   => Loading Basis Set <=

    Name: CC-PVDZ
    Role: ORBITAL
    Keyword: BASIS
    atoms 1   entry O          line   190 file /usr/share/psi4/basis/cc-pvdz.gbs 
    atoms 2-3 entry H          line    20 file /usr/share/psi4/basis/cc-pvdz.gbs 


         ---------------------------------------------------------
                                   SCF
            by Justin Turney, Rob Parrish, and Andy Simmonett
                              RHF Reference
                        1 Threads,    500 MiB Core
         ---------------------------------------------------------

  ==> Geometry <==

    Molecular point group: cs
    Full point group: Cs

    Geometry (in Angstrom), charge = 0, multiplicity = 1:

       Center              X                  Y                   Z               Mass       
    ------------   -----------------  -----------------  -----------------  -----------------
           O          0.000279787183     0.071176265464     0.000000000000    15.994914619560
           H          0.886898935864    -0.564809492127     0.000000000000     1.007825032070
           H         -0.891339361497    -0.564809492127     0.000000000000     1.007825032070

  Running in cs symmetry.

  Rotational constants: A =     23.28293  B =     10.57927  C =      7.27408 [cm^-1]
  Rotational constants: A = 698004.57815  B = 317158.63746  C = 218071.51554 [MHz]
  Nuclear repulsion =    8.042850901882185

  Charge       = 0
  Multiplicity = 1
  Electrons    = 10
  Nalpha       = 5
  Nbeta        = 5

  ==> Algorithm <==

  SCF Algorithm Type is DF.
  DIIS enabled.
  MOM disabled.
  Fractional occupation disabled.
  Guess Type is SAD.
  Energy threshold   = 1.00e-11
  Density threshold  = 1.00e-06
  Integral threshold = 0.00e+00

  ==> Primary Basis <==

  Basis Set: CC-PVDZ
    Blend: CC-PVDZ
    Number of shells: 12
    Number of basis function: 24
    Number of Cartesian functions: 25
    Spherical Harmonics?: true
    Max angular momentum: 2

   => Loading Basis Set <=

    Name: (CC-PVDZ AUX)
    Role: JKFIT
    Keyword: DF_BASIS_SCF
    atoms 1   entry O          line   220 file /usr/share/psi4/basis/cc-pvdz-jkfit.gbs 
    atoms 2-3 entry H          line    50 file /usr/share/psi4/basis/cc-pvdz-jkfit.gbs 

  ==> Pre-Iterations <==

   -------------------------------------------------------
    Irrep   Nso     Nmo     Nalpha   Nbeta   Ndocc  Nsocc
   -------------------------------------------------------
     A'        18      18       0       0       0       0
     A"         6       6       0       0       0       0
   -------------------------------------------------------
    Total      24      24       5       5       5       0
   -------------------------------------------------------

  ==> Integral Setup <==

  ==> DFJK: Density-Fitted J/K Matrices <==

    J tasked:                  Yes
    K tasked:                  Yes
    wK tasked:                  No
    OpenMP threads:              1
    Integrals threads:           1
    Memory (MB):               375
    Algorithm:                Core
    Integral Cache:           NONE
    Schwarz Cutoff:          1E-12
    Fitting Condition:       1E-12

   => Auxiliary Basis Set <=

  Basis Set: (CC-PVDZ AUX)
    Blend: CC-PVDZ-JKFIT
    Number of shells: 42
    Number of basis function: 116
    Number of Cartesian functions: 131
    Spherical Harmonics?: true
    Max angular momentum: 3

  Minimum eigenvalue in the overlap matrix is 4.6881322646E-02.
  Using Symmetric Orthogonalization.

  SCF Guess: Superposition of Atomic Densities via on-the-fly atomic UHF.

  ==> Iterations <==

                           Total Energy        Delta E     RMS |[F,P]|

   @DF-RHF iter   0:   -75.83428486308333   -7.58343e+01   6.73133e-02 
   @DF-RHF iter   1:   -75.92690355139160   -9.26187e-02   1.79412e-02 
   @DF-RHF iter   2:   -75.97382067017841   -4.69171e-02   1.08424e-02 DIIS
   @DF-RHF iter   3:   -75.98935994740175   -1.55393e-02   1.97180e-03 DIIS
   @DF-RHF iter   4:   -75.99085562145149   -1.49567e-03   6.00707e-04 DIIS
   @DF-RHF iter   5:   -75.99102404388861   -1.68422e-04   1.18620e-04 DIIS
   @DF-RHF iter   6:   -75.99103274097773   -8.69709e-06   3.28129e-05 DIIS
   @DF-RHF iter   7:   -75.99103341584457   -6.74867e-07   5.54180e-06 DIIS
   @DF-RHF iter   8:   -75.99103343151748   -1.56729e-08   4.68239e-07 DIIS
   @DF-RHF iter   9:   -75.99103343159072   -7.32427e-11   4.40837e-08 DIIS
   @DF-RHF iter  10:   -75.99103343159133   -6.11067e-13   5.75659e-09 DIIS

  ==> Post-Iterations <==

    Orbital Energies (a.u.)
    -----------------------

    Doubly Occupied:                                                      

       1Ap   -20.570237     2Ap    -1.276590     3Ap    -0.639370  
       4Ap    -0.533766     1App   -0.484404  

    Virtual:                                                              

       5Ap     0.158583     6Ap     0.231939     7Ap     0.721568  
       8Ap     0.731596     9Ap     1.169091     2App    1.189755  
      10Ap     1.260748     3App    1.440982    11Ap     1.509294  
       4App    1.677182    12Ap     1.792143    13Ap     1.896938  
      14Ap     2.171621    15Ap     2.210752     5App    3.161563  
       6App    3.229977    16Ap     3.312929    17Ap     3.758970  
      18Ap     3.973544  

    Final Occupation by Irrep:
             Ap   App 
    DOCC [     4,    1 ]

  Energy converged.

  @DF-RHF Final Energy:   -75.99103343159133

   => Energetics <=

    Nuclear Repulsion Energy =              8.0428509018821845
    One-Electron Energy =                -121.0590350285808938
    Two-Electron Energy =                  37.0251506951073708
    DFT Exchange-Correlation Energy =       0.0000000000000000
    Empirical Dispersion Energy =           0.0000000000000000
    PCM Polarization Energy =               0.0000000000000000
    EFP Energy =                            0.0000000000000000
    Total Energy =                        -75.9910334315913332

    Alert: EFP and PCM quantities not currently incorporated into SCF psivars.

Properties will be evaluated at   0.000000,   0.000000,   0.000000 Bohr

Properties computed using the SCF density matrix

  Nuclear Dipole Moment: (a.u.)
     X:    -0.0042      Y:    -1.0586      Z:     0.0000

  Electronic Dipole Moment: (a.u.)
     X:     0.0022      Y:     0.2361      Z:     0.0000

  Dipole Moment: (a.u.)
     X:    -0.0020      Y:    -0.8226      Z:     0.0000     Total:     0.8226

  Dipole Moment: (Debye)
     X:    -0.0051      Y:    -2.0908      Z:     0.0000     Total:     2.0908


*** tstop() called on sgoodlett at Mon Jun 22 10:34:00 2020
Module time:
	user time   =       0.19 seconds =       0.00 minutes
	system time =       0.01 seconds =       0.00 minutes
	total time  =          0 seconds =       0.00 minutes
Total time:
	user time   =       0.19 seconds =       0.00 minutes
	system time =       0.01 seconds =       0.00 minutes
	total time  =          0 seconds =       0.00 minutes

*** Psi4 exiting successfully. Buy a developer a beer!
