
    -----------------------------------------------------------------------
          Psi4: An Open-Source Ab Initio Electronic Structure Package
                               Psi4 1.1 release

                         Git: Rev {} zzzzzzz 


    R. M. Parrish, L. A. Burns, D. G. A. Smith, A. C. Simmonett,
    A. E. DePrince III, E. G. Hohenstein, U. Bozkaya, A. Yu. Sokolov,
    R. Di Remigio, R. M. Richard, J. F. Gonthier, A. M. James,
    H. R. McAlexander, A. Kumar, M. Saitow, X. Wang, B. P. Pritchard,
    P. Verma, H. F. Schaefer III, K. Patkowski, R. A. King, E. F. Valeev,
    F. A. Evangelista, J. M. Turney, T. D. Crawford, and C. D. Sherrill,
    J. Chem. Theory Comput. in press (2017).
    (doi: 10.1021/acs.jctc.7b00174)

    -----------------------------------------------------------------------


    Psi4 started on: Monday, 22 June 2020 10:34AM

    Process ID:   6114
    PSIDATADIR: /usr/share/psi4
    Memory:     500.0 MiB
    Threads:    1
    
  ==> Input File <==

--------------------------------------------------------------------------
molecule {
0 1
O -0.005 0.0 -0.07617626194871772
H 0.0 -0.89161914868059 0.5648094956415423
H 0.0 0.89161914868059 0.5648094956415423

}

set e_convergence 11
set basis         cc-pVDZ
energy('scf')

--------------------------------------------------------------------------

*** tstart() called on sgoodlett
*** at Mon Jun 22 10:34:05 2020

   => Loading Basis Set <=

    Name: CC-PVDZ
    Role: ORBITAL
    Keyword: BASIS
    atoms 1   entry O          line   190 file /usr/share/psi4/basis/cc-pvdz.gbs 
    atoms 2-3 entry H          line    20 file /usr/share/psi4/basis/cc-pvdz.gbs 


         ---------------------------------------------------------
                                   SCF
            by Justin Turney, Rob Parrish, and Andy Simmonett
                              RHF Reference
                        1 Threads,    500 MiB Core
         ---------------------------------------------------------

  ==> Geometry <==

    Molecular point group: c2v
    Full point group: C2v

    Geometry (in Angstrom), charge = 0, multiplicity = 1:

       Center              X                  Y                   Z               Mass       
    ------------   -----------------  -----------------  -----------------  -----------------
           O         -0.000000000000     0.000000000000    -0.071738022273    15.994914619560
           H          0.000000000000    -0.891619148681     0.569267236234     1.007825032070
           H         -0.000000000000     0.891619148681     0.569267236234     1.007825032070

  Running in c2v symmetry.

  Rotational constants: A =     22.91942  B =     10.52017  C =      7.21050 [cm^-1]
  Rotational constants: A = 687106.84973  B = 315386.63497  C = 216165.31230 [MHz]
  Nuclear repulsion =    8.007035628459979

  Charge       = 0
  Multiplicity = 1
  Electrons    = 10
  Nalpha       = 5
  Nbeta        = 5

  ==> Algorithm <==

  SCF Algorithm Type is DF.
  DIIS enabled.
  MOM disabled.
  Fractional occupation disabled.
  Guess Type is SAD.
  Energy threshold   = 1.00e-11
  Density threshold  = 1.00e-06
  Integral threshold = 0.00e+00

  ==> Primary Basis <==

  Basis Set: CC-PVDZ
    Blend: CC-PVDZ
    Number of shells: 12
    Number of basis function: 24
    Number of Cartesian functions: 25
    Spherical Harmonics?: true
    Max angular momentum: 2

   => Loading Basis Set <=

    Name: (CC-PVDZ AUX)
    Role: JKFIT
    Keyword: DF_BASIS_SCF
    atoms 1   entry O          line   220 file /usr/share/psi4/basis/cc-pvdz-jkfit.gbs 
    atoms 2-3 entry H          line    50 file /usr/share/psi4/basis/cc-pvdz-jkfit.gbs 

  ==> Pre-Iterations <==

   -------------------------------------------------------
    Irrep   Nso     Nmo     Nalpha   Nbeta   Ndocc  Nsocc
   -------------------------------------------------------
     A1        11      11       0       0       0       0
     A2         2       2       0       0       0       0
     B1         4       4       0       0       0       0
     B2         7       7       0       0       0       0
   -------------------------------------------------------
    Total      24      24       5       5       5       0
   -------------------------------------------------------

  ==> Integral Setup <==

  ==> DFJK: Density-Fitted J/K Matrices <==

    J tasked:                  Yes
    K tasked:                  Yes
    wK tasked:                  No
    OpenMP threads:              1
    Integrals threads:           1
    Memory (MB):               375
    Algorithm:                Core
    Integral Cache:           NONE
    Schwarz Cutoff:          1E-12
    Fitting Condition:       1E-12

   => Auxiliary Basis Set <=

  Basis Set: (CC-PVDZ AUX)
    Blend: CC-PVDZ-JKFIT
    Number of shells: 42
    Number of basis function: 116
    Number of Cartesian functions: 131
    Spherical Harmonics?: true
    Max angular momentum: 3

  Minimum eigenvalue in the overlap matrix is 4.7298658940E-02.
  Using Symmetric Orthogonalization.

  SCF Guess: Superposition of Atomic Densities via on-the-fly atomic UHF.

  ==> Iterations <==

                           Total Energy        Delta E     RMS |[F,P]|

   @DF-RHF iter   0:   -75.79537409150831   -7.57954e+01   9.15724e-02 
   @DF-RHF iter   1:   -75.92826541283377   -1.32891e-01   2.42348e-02 
   @DF-RHF iter   2:   -75.97242954715217   -4.41641e-02   1.47567e-02 DIIS
   @DF-RHF iter   3:   -75.98758829977535   -1.51588e-02   2.58951e-03 DIIS
   @DF-RHF iter   4:   -75.98895487826360   -1.36658e-03   8.10882e-04 DIIS
   @DF-RHF iter   5:   -75.98912008574501   -1.65207e-04   1.63448e-04 DIIS
   @DF-RHF iter   6:   -75.98912889656285   -8.81082e-06   4.43835e-05 DIIS
   @DF-RHF iter   7:   -75.98912954708682   -6.50524e-07   7.55593e-06 DIIS
   @DF-RHF iter   8:   -75.98912956237733   -1.52905e-08   6.35617e-07 DIIS
   @DF-RHF iter   9:   -75.98912956244841   -7.10827e-11   5.98976e-08 DIIS
   @DF-RHF iter  10:   -75.98912956244892   -5.11591e-13   6.83469e-09 DIIS

  ==> Post-Iterations <==

    Orbital Energies (a.u.)
    -----------------------

    Doubly Occupied:                                                      

       1A1   -20.571227     2A1    -1.275121     1B2    -0.636809  
       3A1    -0.533436     1B1    -0.484396  

    Virtual:                                                              

       4A1     0.157488     2B2     0.230828     3B2     0.718506  
       5A1     0.729455     6A1     1.169326     2B1     1.188903  
       4B2     1.261696     1A2     1.441111     7A1     1.508495  
       3B1     1.675741     5B2     1.789641     8A1     1.896181  
       6B2     2.161670     9A1     2.203449     4B1     3.159276  
       2A2     3.225006    10A1     3.308880    11A1     3.751651  
       7B2     3.969230  

    Final Occupation by Irrep:
             A1    A2    B1    B2 
    DOCC [     3,    0,    1,    1 ]

  Energy converged.

  @DF-RHF Final Energy:   -75.98912956244892

   => Energetics <=

    Nuclear Repulsion Energy =              8.0070356284599793
    One-Electron Energy =                -120.9903511675266543
    Two-Electron Energy =                  36.9941859766177501
    DFT Exchange-Correlation Energy =       0.0000000000000000
    Empirical Dispersion Energy =           0.0000000000000000
    PCM Polarization Energy =               0.0000000000000000
    EFP Energy =                            0.0000000000000000
    Total Energy =                        -75.9891295624489373

    Alert: EFP and PCM quantities not currently incorporated into SCF psivars.

Properties will be evaluated at   0.000000,   0.000000,   0.000000 Bohr

Properties computed using the SCF density matrix

  Nuclear Dipole Moment: (a.u.)
     X:     0.0000      Y:     0.0000      Z:     1.0670

  Electronic Dipole Moment: (a.u.)
     X:     0.0000      Y:     0.0000      Z:    -0.2414

  Dipole Moment: (a.u.)
     X:     0.0000      Y:     0.0000      Z:     0.8256     Total:     0.8256

  Dipole Moment: (Debye)
     X:     0.0000      Y:     0.0000      Z:     2.0984     Total:     2.0984


*** tstop() called on sgoodlett at Mon Jun 22 10:34:05 2020
Module time:
	user time   =       0.21 seconds =       0.00 minutes
	system time =       0.00 seconds =       0.00 minutes
	total time  =          0 seconds =       0.00 minutes
Total time:
	user time   =       0.21 seconds =       0.00 minutes
	system time =       0.00 seconds =       0.00 minutes
	total time  =          0 seconds =       0.00 minutes

*** Psi4 exiting successfully. Buy a developer a beer!
