
    -----------------------------------------------------------------------
          Psi4: An Open-Source Ab Initio Electronic Structure Package
                               Psi4 1.1 release

                         Git: Rev {} zzzzzzz 


    R. M. Parrish, L. A. Burns, D. G. A. Smith, A. C. Simmonett,
    A. E. DePrince III, E. G. Hohenstein, U. Bozkaya, A. Yu. Sokolov,
    R. Di Remigio, R. M. Richard, J. F. Gonthier, A. M. James,
    H. R. McAlexander, A. Kumar, M. Saitow, X. Wang, B. P. Pritchard,
    P. Verma, H. F. Schaefer III, K. Patkowski, R. A. King, E. F. Valeev,
    F. A. Evangelista, J. M. Turney, T. D. Crawford, and C. D. Sherrill,
    J. Chem. Theory Comput. in press (2017).
    (doi: 10.1021/acs.jctc.7b00174)

    -----------------------------------------------------------------------


    Psi4 started on: Monday, 22 June 2020 10:33AM

    Process ID:   5633
    PSIDATADIR: /usr/share/psi4
    Memory:     500.0 MiB
    Threads:    1
    
  ==> Input File <==

--------------------------------------------------------------------------
molecule {
0 1
O 0.0 0.0 -0.07617626194871772
H 0.0 -0.89661914868059 0.5648094956415423
H 0.0 0.89161914868059 0.5648094956415423

}

set e_convergence 11
set basis         cc-pVDZ
energy('scf')

--------------------------------------------------------------------------

*** tstart() called on sgoodlett
*** at Mon Jun 22 10:33:40 2020

   => Loading Basis Set <=

    Name: CC-PVDZ
    Role: ORBITAL
    Keyword: BASIS
    atoms 1   entry O          line   190 file /usr/share/psi4/basis/cc-pvdz.gbs 
    atoms 2-3 entry H          line    20 file /usr/share/psi4/basis/cc-pvdz.gbs 


         ---------------------------------------------------------
                                   SCF
            by Justin Turney, Rob Parrish, and Andy Simmonett
                              RHF Reference
                        1 Threads,    500 MiB Core
         ---------------------------------------------------------

  ==> Geometry <==

    Molecular point group: cs
    Full point group: Cs

    Geometry (in Angstrom), charge = 0, multiplicity = 1:

       Center              X                  Y                   Z               Mass       
    ------------   -----------------  -----------------  -----------------  -----------------
           O         -0.000279787183     0.071735839830     0.000000000000    15.994914619560
           H          0.896339361497    -0.569249917760     0.000000000000     1.007825032070
           H         -0.891898935864    -0.569249917760     0.000000000000     1.007825032070

  Running in cs symmetry.

  Rotational constants: A =     22.92110  B =     10.46128  C =      7.18295 [cm^-1]
  Rotational constants: A = 687157.43504  B = 313621.42263  C = 215339.57347 [MHz]
  Nuclear repulsion =    7.992072000004543

  Charge       = 0
  Multiplicity = 1
  Electrons    = 10
  Nalpha       = 5
  Nbeta        = 5

  ==> Algorithm <==

  SCF Algorithm Type is DF.
  DIIS enabled.
  MOM disabled.
  Fractional occupation disabled.
  Guess Type is SAD.
  Energy threshold   = 1.00e-11
  Density threshold  = 1.00e-06
  Integral threshold = 0.00e+00

  ==> Primary Basis <==

  Basis Set: CC-PVDZ
    Blend: CC-PVDZ
    Number of shells: 12
    Number of basis function: 24
    Number of Cartesian functions: 25
    Spherical Harmonics?: true
    Max angular momentum: 2

   => Loading Basis Set <=

    Name: (CC-PVDZ AUX)
    Role: JKFIT
    Keyword: DF_BASIS_SCF
    atoms 1   entry O          line   220 file /usr/share/psi4/basis/cc-pvdz-jkfit.gbs 
    atoms 2-3 entry H          line    50 file /usr/share/psi4/basis/cc-pvdz-jkfit.gbs 

  ==> Pre-Iterations <==

   -------------------------------------------------------
    Irrep   Nso     Nmo     Nalpha   Nbeta   Ndocc  Nsocc
   -------------------------------------------------------
     A'        18      18       0       0       0       0
     A"         6       6       0       0       0       0
   -------------------------------------------------------
    Total      24      24       5       5       5       0
   -------------------------------------------------------

  ==> Integral Setup <==

  ==> DFJK: Density-Fitted J/K Matrices <==

    J tasked:                  Yes
    K tasked:                  Yes
    wK tasked:                  No
    OpenMP threads:              1
    Integrals threads:           1
    Memory (MB):               375
    Algorithm:                Core
    Integral Cache:           NONE
    Schwarz Cutoff:          1E-12
    Fitting Condition:       1E-12

   => Auxiliary Basis Set <=

  Basis Set: (CC-PVDZ AUX)
    Blend: CC-PVDZ-JKFIT
    Number of shells: 42
    Number of basis function: 116
    Number of Cartesian functions: 131
    Spherical Harmonics?: true
    Max angular momentum: 3

  Minimum eigenvalue in the overlap matrix is 4.7553036045E-02.
  Using Symmetric Orthogonalization.

  SCF Guess: Superposition of Atomic Densities via on-the-fly atomic UHF.

  ==> Iterations <==

                           Total Energy        Delta E     RMS |[F,P]|

   @DF-RHF iter   0:   -75.72339887087480   -7.57234e+01   6.58722e-02 
   @DF-RHF iter   1:   -75.94585438007721   -2.22456e-01   1.50194e-02 
   @DF-RHF iter   2:   -75.97633945527116   -3.04851e-02   9.04743e-03 DIIS
   @DF-RHF iter   3:   -75.98711323007920   -1.07738e-02   1.43750e-03 DIIS
   @DF-RHF iter   4:   -75.98807076192672   -9.57532e-04   5.31693e-04 DIIS
   @DF-RHF iter   5:   -75.98821870125249   -1.47939e-04   1.15559e-04 DIIS
   @DF-RHF iter   6:   -75.98822763550280   -8.93425e-06   2.23852e-05 DIIS
   @DF-RHF iter   7:   -75.98822794772472   -3.12222e-07   3.62427e-06 DIIS
   @DF-RHF iter   8:   -75.98822795333824   -5.61351e-09   4.64307e-07 DIIS
   @DF-RHF iter   9:   -75.98822795340263   -6.43894e-11   3.26248e-08 DIIS
   @DF-RHF iter  10:   -75.98822795340300   -3.69482e-13   4.95481e-09 DIIS

  ==> Post-Iterations <==

    Orbital Energies (a.u.)
    -----------------------

    Doubly Occupied:                                                      

       1Ap   -20.571433     2Ap    -1.274354     3Ap    -0.636110  
       4Ap    -0.532803     1App   -0.484264  

    Virtual:                                                              

       5Ap     0.156989     6Ap     0.230424     7Ap     0.717861  
       8Ap     0.727839     9Ap     1.169369     2App    1.188674  
      10Ap     1.261740     3App    1.440612    11Ap     1.509991  
       4App    1.676059    12Ap     1.787737    13Ap     1.896004  
      14Ap     2.157975    15Ap     2.200914     5App    3.157401  
       6App    3.223819    16Ap     3.305567    17Ap     3.750628  
      18Ap     3.966267  

    Final Occupation by Irrep:
             Ap   App 
    DOCC [     4,    1 ]

  Energy converged.

  @DF-RHF Final Energy:   -75.98822795340300

   => Energetics <=

    Nuclear Repulsion Energy =              7.9920720000045433
    One-Electron Energy =                -120.9626703675466359
    Two-Electron Energy =                  36.9823704141390976
    DFT Exchange-Correlation Energy =       0.0000000000000000
    Empirical Dispersion Energy =           0.0000000000000000
    PCM Polarization Energy =               0.0000000000000000
    EFP Energy =                            0.0000000000000000
    Total Energy =                        -75.9882279534029976

    Alert: EFP and PCM quantities not currently incorporated into SCF psivars.

Properties will be evaluated at   0.000000,   0.000000,   0.000000 Bohr

Properties computed using the SCF density matrix

  Nuclear Dipole Moment: (a.u.)
     X:     0.0042      Y:    -1.0670      Z:     0.0000

  Electronic Dipole Moment: (a.u.)
     X:    -0.0022      Y:     0.2420      Z:     0.0000

  Dipole Moment: (a.u.)
     X:     0.0020      Y:    -0.8249      Z:     0.0000     Total:     0.8249

  Dipole Moment: (Debye)
     X:     0.0050      Y:    -2.0968      Z:     0.0000     Total:     2.0968


*** tstop() called on sgoodlett at Mon Jun 22 10:33:41 2020
Module time:
	user time   =       0.19 seconds =       0.00 minutes
	system time =       0.00 seconds =       0.00 minutes
	total time  =          1 seconds =       0.02 minutes
Total time:
	user time   =       0.19 seconds =       0.00 minutes
	system time =       0.00 seconds =       0.00 minutes
	total time  =          1 seconds =       0.02 minutes

*** Psi4 exiting successfully. Buy a developer a beer!
