
    -----------------------------------------------------------------------
          Psi4: An Open-Source Ab Initio Electronic Structure Package
                               Psi4 1.1 release

                         Git: Rev {} zzzzzzz 


    R. M. Parrish, L. A. Burns, D. G. A. Smith, A. C. Simmonett,
    A. E. DePrince III, E. G. Hohenstein, U. Bozkaya, A. Yu. Sokolov,
    R. Di Remigio, R. M. Richard, J. F. Gonthier, A. M. James,
    H. R. McAlexander, A. Kumar, M. Saitow, X. Wang, B. P. Pritchard,
    P. Verma, H. F. Schaefer III, K. Patkowski, R. A. King, E. F. Valeev,
    F. A. Evangelista, J. M. Turney, T. D. Crawford, and C. D. Sherrill,
    J. Chem. Theory Comput. in press (2017).
    (doi: 10.1021/acs.jctc.7b00174)

    -----------------------------------------------------------------------


    Psi4 started on: Monday, 22 June 2020 10:34AM

    Process ID:   6350
    PSIDATADIR: /usr/share/psi4
    Memory:     500.0 MiB
    Threads:    1
    
  ==> Input File <==

--------------------------------------------------------------------------
molecule {
0 1
O -0.005 0.0 -0.07117626194871772
H 0.0 -0.89161914868059 0.5648094956415423
H 0.0 0.88661914868059 0.5648094956415423

}

set e_convergence 11
set basis         cc-pVDZ
energy('scf')

--------------------------------------------------------------------------

*** tstart() called on sgoodlett
*** at Mon Jun 22 10:34:17 2020

   => Loading Basis Set <=

    Name: CC-PVDZ
    Role: ORBITAL
    Keyword: BASIS
    atoms 1   entry O          line   190 file /usr/share/psi4/basis/cc-pvdz.gbs 
    atoms 2-3 entry H          line    20 file /usr/share/psi4/basis/cc-pvdz.gbs 


         ---------------------------------------------------------
                                   SCF
            by Justin Turney, Rob Parrish, and Andy Simmonett
                              RHF Reference
                        1 Threads,    500 MiB Core
         ---------------------------------------------------------

  ==> Geometry <==

    Molecular point group: cs
    Full point group: Cs

    Geometry (in Angstrom), charge = 0, multiplicity = 1:

       Center              X                  Y                   Z               Mass       
    ------------   -----------------  -----------------  -----------------  -----------------
           O          0.071178465064     0.000279787183     0.000000000000    15.994914619560
           H         -0.564826946751    -0.891339361497     0.000000000000     1.007825032070
           H         -0.564826946751     0.886898935864     0.000000000000     1.007825032070

  Running in cs symmetry.

  Rotational constants: A =     23.28149  B =     10.57927  C =      7.27394 [cm^-1]
  Rotational constants: A = 697961.43896  B = 317158.63725  C = 218067.30457 [MHz]
  Nuclear repulsion =    8.042769885198933

  Charge       = 0
  Multiplicity = 1
  Electrons    = 10
  Nalpha       = 5
  Nbeta        = 5

  ==> Algorithm <==

  SCF Algorithm Type is DF.
  DIIS enabled.
  MOM disabled.
  Fractional occupation disabled.
  Guess Type is SAD.
  Energy threshold   = 1.00e-11
  Density threshold  = 1.00e-06
  Integral threshold = 0.00e+00

  ==> Primary Basis <==

  Basis Set: CC-PVDZ
    Blend: CC-PVDZ
    Number of shells: 12
    Number of basis function: 24
    Number of Cartesian functions: 25
    Spherical Harmonics?: true
    Max angular momentum: 2

   => Loading Basis Set <=

    Name: (CC-PVDZ AUX)
    Role: JKFIT
    Keyword: DF_BASIS_SCF
    atoms 1   entry O          line   220 file /usr/share/psi4/basis/cc-pvdz-jkfit.gbs 
    atoms 2-3 entry H          line    50 file /usr/share/psi4/basis/cc-pvdz-jkfit.gbs 

  ==> Pre-Iterations <==

   -------------------------------------------------------
    Irrep   Nso     Nmo     Nalpha   Nbeta   Ndocc  Nsocc
   -------------------------------------------------------
     A'        18      18       0       0       0       0
     A"         6       6       0       0       0       0
   -------------------------------------------------------
    Total      24      24       5       5       5       0
   -------------------------------------------------------

  ==> Integral Setup <==

  ==> DFJK: Density-Fitted J/K Matrices <==

    J tasked:                  Yes
    K tasked:                  Yes
    wK tasked:                  No
    OpenMP threads:              1
    Integrals threads:           1
    Memory (MB):               375
    Algorithm:                Core
    Integral Cache:           NONE
    Schwarz Cutoff:          1E-12
    Fitting Condition:       1E-12

   => Auxiliary Basis Set <=

  Basis Set: (CC-PVDZ AUX)
    Blend: CC-PVDZ-JKFIT
    Number of shells: 42
    Number of basis function: 116
    Number of Cartesian functions: 131
    Spherical Harmonics?: true
    Max angular momentum: 3

  Minimum eigenvalue in the overlap matrix is 4.6881950213E-02.
  Using Symmetric Orthogonalization.

  SCF Guess: Superposition of Atomic Densities via on-the-fly atomic UHF.

  ==> Iterations <==

                           Total Energy        Delta E     RMS |[F,P]|

   @DF-RHF iter   0:   -75.75709036701367   -7.57571e+01   6.68987e-02 
   @DF-RHF iter   1:   -75.94734129681991   -1.90251e-01   1.51335e-02 
   @DF-RHF iter   2:   -75.97905752027697   -3.17162e-02   9.01303e-03 DIIS
   @DF-RHF iter   3:   -75.98981124197783   -1.07537e-02   1.51020e-03 DIIS
   @DF-RHF iter   4:   -75.99086694474640   -1.05570e-03   5.43267e-04 DIIS
   @DF-RHF iter   5:   -75.99102032183796   -1.53377e-04   1.15823e-04 DIIS
   @DF-RHF iter   6:   -75.99102919155267   -8.86971e-06   2.26561e-05 DIIS
   @DF-RHF iter   7:   -75.99102950924863   -3.17696e-07   3.60170e-06 DIIS
   @DF-RHF iter   8:   -75.99102951477030   -5.52167e-09   4.74281e-07 DIIS
   @DF-RHF iter   9:   -75.99102951483569   -6.53841e-11   3.54356e-08 DIIS
   @DF-RHF iter  10:   -75.99102951483609   -3.97904e-13   6.37721e-09 DIIS

  ==> Post-Iterations <==

    Orbital Energies (a.u.)
    -----------------------

    Doubly Occupied:                                                      

       1Ap   -20.570240     2Ap    -1.276588     3Ap    -0.639362  
       4Ap    -0.533767     1App   -0.484404  

    Virtual:                                                              

       5Ap     0.158580     6Ap     0.231937     7Ap     0.721557  
       8Ap     0.731595     9Ap     1.169092     2App    1.189752  
      10Ap     1.260751     3App    1.440985    11Ap     1.509285  
       4App    1.677175    12Ap     1.792141    13Ap     1.896936  
      14Ap     2.171595    15Ap     2.210735     5App    3.161562  
       6App    3.229962    16Ap     3.312927    17Ap     3.758945  
      18Ap     3.973539  

    Final Occupation by Irrep:
             Ap   App 
    DOCC [     4,    1 ]

  Energy converged.

  @DF-RHF Final Energy:   -75.99102951483609

   => Energetics <=

    Nuclear Repulsion Energy =              8.0427698851989327
    One-Electron Energy =                -121.0588757342175086
    Two-Electron Energy =                  37.0250763341824864
    DFT Exchange-Correlation Energy =       0.0000000000000000
    Empirical Dispersion Energy =           0.0000000000000000
    PCM Polarization Energy =               0.0000000000000000
    EFP Energy =                            0.0000000000000000
    Total Energy =                        -75.9910295148360859



Properties will be evaluated at   0.000000,   0.000000,   0.000000 Bohr

Properties computed using the SCF density matrix

  Nuclear Dipole Moment: (a.u.)
     X:    -1.0587      Y:    -0.0042      Z:     0.0000

  Electronic Dipole Moment: (a.u.)
     X:     0.2361      Y:     0.0022      Z:     0.0000

  Dipole Moment: (a.u.)
     X:    -0.8226      Y:    -0.0020      Z:     0.0000     Total:     0.8226

  Dipole Moment: (Debye)
     X:    -2.0908      Y:    -0.0051      Z:     0.0000     Total:     2.0908


*** tstop() called on sgoodlett at Mon Jun 22 10:34:17 2020
Module time:
	user time   =       0.19 seconds =       0.00 minutes
	system time =       0.00 seconds =       0.00 minutes
	total time  =          0 seconds =       0.00 minutes
Total time:
	user time   =       0.19 seconds =       0.00 minutes
	system time =       0.00 seconds =       0.00 minutes
	total time  =          0 seconds =       0.00 minutes

*** Psi4 exiting successfully. Buy a developer a beer!
