
    -----------------------------------------------------------------------
          Psi4: An Open-Source Ab Initio Electronic Structure Package
                               Psi4 1.1 release

                         Git: Rev {} zzzzzzz 


    R. M. Parrish, L. A. Burns, D. G. A. Smith, A. C. Simmonett,
    A. E. DePrince III, E. G. Hohenstein, U. Bozkaya, A. Yu. Sokolov,
    R. Di Remigio, R. M. Richard, J. F. Gonthier, A. M. James,
    H. R. McAlexander, A. Kumar, M. Saitow, X. Wang, B. P. Pritchard,
    P. Verma, H. F. Schaefer III, K. Patkowski, R. A. King, E. F. Valeev,
    F. A. Evangelista, J. M. Turney, T. D. Crawford, and C. D. Sherrill,
    J. Chem. Theory Comput. in press (2017).
    (doi: 10.1021/acs.jctc.7b00174)

    -----------------------------------------------------------------------


    Psi4 started on: Monday, 22 June 2020 10:34AM

    Process ID:   6507
    PSIDATADIR: /usr/share/psi4
    Memory:     500.0 MiB
    Threads:    1
    
  ==> Input File <==

--------------------------------------------------------------------------
molecule {
0 1
O 0.0 -0.005 -0.07117626194871772
H 0.0 -0.89161914868059 0.5648094956415423
H 0.0 0.89161914868059 0.5598094956415423

}

set e_convergence 11
set basis         cc-pVDZ
energy('scf')

--------------------------------------------------------------------------

*** tstart() called on sgoodlett
*** at Mon Jun 22 10:34:25 2020

   => Loading Basis Set <=

    Name: CC-PVDZ
    Role: ORBITAL
    Keyword: BASIS
    atoms 1   entry O          line   190 file /usr/share/psi4/basis/cc-pvdz.gbs 
    atoms 2-3 entry H          line    20 file /usr/share/psi4/basis/cc-pvdz.gbs 


         ---------------------------------------------------------
                                   SCF
            by Justin Turney, Rob Parrish, and Andy Simmonett
                              RHF Reference
                        1 Threads,    500 MiB Core
         ---------------------------------------------------------

  ==> Geometry <==

    Molecular point group: cs
    Full point group: Cs

    Geometry (in Angstrom), charge = 0, multiplicity = 1:

       Center              X                  Y                   Z               Mass       
    ------------   -----------------  -----------------  -----------------  -----------------
           O          0.000559574366     0.070896478281     0.000000000000    15.994914619560
           H          0.887178723047    -0.565089279310     0.000000000000     1.007825032070
           H         -0.896059574314    -0.560089279310     0.000000000000     1.007825032070

  Running in cs symmetry.

  Rotational constants: A =     23.46640  B =     10.51986  C =      7.26362 [cm^-1]
  Rotational constants: A = 703504.82951  B = 315377.51882  C = 217757.82844 [MHz]
  Nuclear repulsion =    8.037822541084420

  Charge       = 0
  Multiplicity = 1
  Electrons    = 10
  Nalpha       = 5
  Nbeta        = 5

  ==> Algorithm <==

  SCF Algorithm Type is DF.
  DIIS enabled.
  MOM disabled.
  Fractional occupation disabled.
  Guess Type is SAD.
  Energy threshold   = 1.00e-11
  Density threshold  = 1.00e-06
  Integral threshold = 0.00e+00

  ==> Primary Basis <==

  Basis Set: CC-PVDZ
    Blend: CC-PVDZ
    Number of shells: 12
    Number of basis function: 24
    Number of Cartesian functions: 25
    Spherical Harmonics?: true
    Max angular momentum: 2

   => Loading Basis Set <=

    Name: (CC-PVDZ AUX)
    Role: JKFIT
    Keyword: DF_BASIS_SCF
    atoms 1   entry O          line   220 file /usr/share/psi4/basis/cc-pvdz-jkfit.gbs 
    atoms 2-3 entry H          line    50 file /usr/share/psi4/basis/cc-pvdz-jkfit.gbs 

  ==> Pre-Iterations <==

   -------------------------------------------------------
    Irrep   Nso     Nmo     Nalpha   Nbeta   Ndocc  Nsocc
   -------------------------------------------------------
     A'        18      18       0       0       0       0
     A"         6       6       0       0       0       0
   -------------------------------------------------------
    Total      24      24       5       5       5       0
   -------------------------------------------------------

  ==> Integral Setup <==

  ==> DFJK: Density-Fitted J/K Matrices <==

    J tasked:                  Yes
    K tasked:                  Yes
    wK tasked:                  No
    OpenMP threads:              1
    Integrals threads:           1
    Memory (MB):               375
    Algorithm:                Core
    Integral Cache:           NONE
    Schwarz Cutoff:          1E-12
    Fitting Condition:       1E-12

   => Auxiliary Basis Set <=

  Basis Set: (CC-PVDZ AUX)
    Blend: CC-PVDZ-JKFIT
    Number of shells: 42
    Number of basis function: 116
    Number of Cartesian functions: 131
    Spherical Harmonics?: true
    Max angular momentum: 3

  Minimum eigenvalue in the overlap matrix is 4.7056552873E-02.
  Using Symmetric Orthogonalization.

  SCF Guess: Superposition of Atomic Densities via on-the-fly atomic UHF.

  ==> Iterations <==

                           Total Energy        Delta E     RMS |[F,P]|

   @DF-RHF iter   0:   -75.67437161344277   -7.56744e+01   6.59112e-02 
   @DF-RHF iter   1:   -75.97193603974293   -2.97564e-01   1.12993e-02 
   @DF-RHF iter   2:   -75.98578337568685   -1.38473e-02   5.91031e-03 DIIS
   @DF-RHF iter   3:   -75.99043273430716   -4.64936e-03   9.48240e-04 DIIS
   @DF-RHF iter   4:   -75.99060944847218   -1.76714e-04   2.06045e-04 DIIS
   @DF-RHF iter   5:   -75.99063046074703   -2.10123e-05   6.12758e-05 DIIS
   @DF-RHF iter   6:   -75.99063290668326   -2.44594e-06   1.14183e-05 DIIS
   @DF-RHF iter   7:   -75.99063298914714   -8.24639e-08   1.36270e-06 DIIS
   @DF-RHF iter   8:   -75.99063299003777   -8.90623e-10   2.31749e-07 DIIS
   @DF-RHF iter   9:   -75.99063299005923   -2.14584e-11   3.09997e-08 DIIS
   @DF-RHF iter  10:   -75.99063299005921    1.42109e-14   3.22561e-09 DIIS

  ==> Post-Iterations <==

    Orbital Energies (a.u.)
    -----------------------

    Doubly Occupied:                                                      

       1Ap   -20.570060     2Ap    -1.276143     3Ap    -0.639569  
       4Ap    -0.532979     1App   -0.484205  

    Virtual:                                                              

       5Ap     0.158382     6Ap     0.231880     7Ap     0.722205  
       8Ap     0.730071     9Ap     1.169059     2App    1.189835  
      10Ap     1.260337     3App    1.440157    11Ap     1.511906  
       4App    1.678368    12Ap     1.790493    13Ap     1.897164  
      14Ap     2.171248    15Ap     2.210063     5App    3.159892  
       6App    3.230574    16Ap     3.309841    17Ap     3.761168  
      18Ap     3.971149  

    Final Occupation by Irrep:
             Ap   App 
    DOCC [     4,    1 ]

  Energy converged.

  @DF-RHF Final Energy:   -75.99063299005921

   => Energetics <=

    Nuclear Repulsion Energy =              8.0378225410844202
    One-Electron Energy =                -121.0509982948954928
    Two-Electron Energy =                  37.0225427637518649
    DFT Exchange-Correlation Energy =       0.0000000000000000
    Empirical Dispersion Energy =           0.0000000000000000
    PCM Polarization Energy =               0.0000000000000000
    EFP Energy =                            0.0000000000000000
    Total Energy =                        -75.9906329900591970



Properties will be evaluated at   0.000000,   0.000000,   0.000000 Bohr

Properties computed using the SCF density matrix

  Nuclear Dipole Moment: (a.u.)
     X:    -0.0083      Y:    -1.0545      Z:     0.0000

  Electronic Dipole Moment: (a.u.)
     X:     0.0034      Y:     0.2343      Z:     0.0000

  Dipole Moment: (a.u.)
     X:    -0.0049      Y:    -0.8202      Z:     0.0000     Total:     0.8202

  Dipole Moment: (Debye)
     X:    -0.0125      Y:    -2.0847      Z:     0.0000     Total:     2.0847


*** tstop() called on sgoodlett at Mon Jun 22 10:34:25 2020
Module time:
	user time   =       0.19 seconds =       0.00 minutes
	system time =       0.00 seconds =       0.00 minutes
	total time  =          0 seconds =       0.00 minutes
Total time:
	user time   =       0.19 seconds =       0.00 minutes
	system time =       0.00 seconds =       0.00 minutes
	total time  =          0 seconds =       0.00 minutes

*** Psi4 exiting successfully. Buy a developer a beer!
