
    -----------------------------------------------------------------------
          Psi4: An Open-Source Ab Initio Electronic Structure Package
                               Psi4 1.1 release

                         Git: Rev {} zzzzzzz 


    R. M. Parrish, L. A. Burns, D. G. A. Smith, A. C. Simmonett,
    A. E. DePrince III, E. G. Hohenstein, U. Bozkaya, A. Yu. Sokolov,
    R. Di Remigio, R. M. Richard, J. F. Gonthier, A. M. James,
    H. R. McAlexander, A. Kumar, M. Saitow, X. Wang, B. P. Pritchard,
    P. Verma, H. F. Schaefer III, K. Patkowski, R. A. King, E. F. Valeev,
    F. A. Evangelista, J. M. Turney, T. D. Crawford, and C. D. Sherrill,
    J. Chem. Theory Comput. in press (2017).
    (doi: 10.1021/acs.jctc.7b00174)

    -----------------------------------------------------------------------


    Psi4 started on: Monday, 22 June 2020 10:33AM

    Process ID:   5360
    PSIDATADIR: /usr/share/psi4
    Memory:     500.0 MiB
    Threads:    1
    
  ==> Input File <==

--------------------------------------------------------------------------
molecule {
0 1
O 0.005 0.0 -0.07117626194871772
H 0.0 -0.89161914868059 0.5698094956415423
H 0.0 0.89161914868059 0.5648094956415423

}

set e_convergence 11
set basis         cc-pVDZ
energy('scf')

--------------------------------------------------------------------------

*** tstart() called on sgoodlett
*** at Mon Jun 22 10:33:26 2020

   => Loading Basis Set <=

    Name: CC-PVDZ
    Role: ORBITAL
    Keyword: BASIS
    atoms 1   entry O          line   190 file /usr/share/psi4/basis/cc-pvdz.gbs 
    atoms 2-3 entry H          line    20 file /usr/share/psi4/basis/cc-pvdz.gbs 


         ---------------------------------------------------------
                                   SCF
            by Justin Turney, Rob Parrish, and Andy Simmonett
                              RHF Reference
                        1 Threads,    500 MiB Core
         ---------------------------------------------------------

  ==> Geometry <==

    Molecular point group: cs
    Full point group: Cs

    Geometry (in Angstrom), charge = 0, multiplicity = 1:

       Center              X                  Y                   Z               Mass       
    ------------   -----------------  -----------------  -----------------  -----------------
           O          0.071458243635     0.000000000000     0.000000000000    15.994914619560
           H         -0.569547014573    -0.891619148896     0.000000000000     1.007825032070
           H         -0.564547167879     0.891619148896     0.000000000000     1.007825032070

  Running in cs symmetry.

  Rotational constants: A =     23.09957  B =     10.52001  C =      7.22816 [cm^-1]
  Rotational constants: A = 692507.80318  B = 315382.08205  C = 216694.85526 [MHz]
  Nuclear repulsion =    8.017281281926959

  Charge       = 0
  Multiplicity = 1
  Electrons    = 10
  Nalpha       = 5
  Nbeta        = 5

  ==> Algorithm <==

  SCF Algorithm Type is DF.
  DIIS enabled.
  MOM disabled.
  Fractional occupation disabled.
  Guess Type is SAD.
  Energy threshold   = 1.00e-11
  Density threshold  = 1.00e-06
  Integral threshold = 0.00e+00

  ==> Primary Basis <==

  Basis Set: CC-PVDZ
    Blend: CC-PVDZ
    Number of shells: 12
    Number of basis function: 24
    Number of Cartesian functions: 25
    Spherical Harmonics?: true
    Max angular momentum: 2

   => Loading Basis Set <=

    Name: (CC-PVDZ AUX)
    Role: JKFIT
    Keyword: DF_BASIS_SCF
    atoms 1   entry O          line   220 file /usr/share/psi4/basis/cc-pvdz-jkfit.gbs 
    atoms 2-3 entry H          line    50 file /usr/share/psi4/basis/cc-pvdz-jkfit.gbs 

  ==> Pre-Iterations <==

   -------------------------------------------------------
    Irrep   Nso     Nmo     Nalpha   Nbeta   Ndocc  Nsocc
   -------------------------------------------------------
     A'        18      18       0       0       0       0
     A"         6       6       0       0       0       0
   -------------------------------------------------------
    Total      24      24       5       5       5       0
   -------------------------------------------------------

  ==> Integral Setup <==

  ==> DFJK: Density-Fitted J/K Matrices <==

    J tasked:                  Yes
    K tasked:                  Yes
    wK tasked:                  No
    OpenMP threads:              1
    Integrals threads:           1
    Memory (MB):               375
    Algorithm:                Core
    Integral Cache:           NONE
    Schwarz Cutoff:          1E-12
    Fitting Condition:       1E-12

   => Auxiliary Basis Set <=

  Basis Set: (CC-PVDZ AUX)
    Blend: CC-PVDZ-JKFIT
    Number of shells: 42
    Number of basis function: 116
    Number of Cartesian functions: 131
    Spherical Harmonics?: true
    Max angular momentum: 3

  Minimum eigenvalue in the overlap matrix is 4.7217523318E-02.
  Using Symmetric Orthogonalization.

  SCF Guess: Superposition of Atomic Densities via on-the-fly atomic UHF.

  ==> Iterations <==

                           Total Energy        Delta E     RMS |[F,P]|

   @DF-RHF iter   0:   -75.82772712249491   -7.58277e+01   6.68344e-02 
   @DF-RHF iter   1:   -75.92515789351393   -9.74308e-02   1.79564e-02 
   @DF-RHF iter   2:   -75.97219629966678   -4.70384e-02   1.09110e-02 DIIS
   @DF-RHF iter   3:   -75.98793813680741   -1.57418e-02   1.97869e-03 DIIS
   @DF-RHF iter   4:   -75.98945433233240   -1.51620e-03   6.05710e-04 DIIS
   @DF-RHF iter   5:   -75.98962654319834   -1.72211e-04   1.20428e-04 DIIS
   @DF-RHF iter   6:   -75.98963555547277   -9.01227e-06   3.34496e-05 DIIS
   @DF-RHF iter   7:   -75.98963626010760   -7.04635e-07   5.63330e-06 DIIS
   @DF-RHF iter   8:   -75.98963627628541   -1.61778e-08   4.72763e-07 DIIS
   @DF-RHF iter   9:   -75.98963627635965   -7.42375e-11   4.40349e-08 DIIS
   @DF-RHF iter  10:   -75.98963627636027   -6.25278e-13   5.10315e-09 DIIS

  ==> Post-Iterations <==

    Orbital Energies (a.u.)
    -----------------------

    Doubly Occupied:                                                      

       1Ap   -20.570838     2Ap    -1.275461     3Ap    -0.637727  
       4Ap    -0.533286     1App   -0.484332  

    Virtual:                                                              

       5Ap     0.157787     6Ap     0.231182     7Ap     0.719761  
       8Ap     0.729631     9Ap     1.169234     2App    1.189216  
      10Ap     1.261241     3App    1.440792    11Ap     1.509634  
       4App    1.676611    12Ap     1.789927    13Ap     1.896517  
      14Ap     2.164868    15Ap     2.205617     5App    3.159491  
       6App    3.226853    16Ap     3.309234    17Ap     3.754788  
      18Ap     3.969893  

    Final Occupation by Irrep:
             Ap   App 
    DOCC [     4,    1 ]

  Energy converged.

  @DF-RHF Final Energy:   -75.98963627636027

   => Energetics <=

    Nuclear Repulsion Energy =              8.0172812819269588
    One-Electron Energy =                -121.0105478476468051
    Two-Electron Energy =                  37.0036302893595703
    DFT Exchange-Correlation Energy =       0.0000000000000000
    Empirical Dispersion Energy =           0.0000000000000000
    PCM Polarization Energy =               0.0000000000000000
    EFP Energy =                            0.0000000000000000
    Total Energy =                        -75.9896362763602724



Properties will be evaluated at   0.000000,   0.000000,   0.000000 Bohr

Properties computed using the SCF density matrix

  Nuclear Dipole Moment: (a.u.)
     X:    -1.0628      Y:    -0.0000      Z:     0.0000

  Electronic Dipole Moment: (a.u.)
     X:     0.2391      Y:     0.0009      Z:     0.0000

  Dipole Moment: (a.u.)
     X:    -0.8238      Y:     0.0009      Z:     0.0000     Total:     0.8238

  Dipole Moment: (Debye)
     X:    -2.0938      Y:     0.0022      Z:     0.0000     Total:     2.0938


*** tstop() called on sgoodlett at Mon Jun 22 10:33:27 2020
Module time:
	user time   =       0.19 seconds =       0.00 minutes
	system time =       0.02 seconds =       0.00 minutes
	total time  =          1 seconds =       0.02 minutes
Total time:
	user time   =       0.19 seconds =       0.00 minutes
	system time =       0.02 seconds =       0.00 minutes
	total time  =          1 seconds =       0.02 minutes

*** Psi4 exiting successfully. Buy a developer a beer!
